/*--------------------------------*- C++ -*----------------------------------*\
| =========                 |                                                 |
| \\      /  F ield         | OpenFOAM: The Open Source CFD Toolbox           |
|  \\    /   O peration     | Version:  2212                                  |
|   \\  /    A nd           | Website:  www.openfoam.com                      |
|    \\/     M anipulation  |                                                 |
\*---------------------------------------------------------------------------*/
FoamFile
{
    version     2.0;
    format      ascii;
    arch        "LSB;label=32;scalar=64";
    class       volScalarField;
    location    "17.5";
    object      T;
}
// * * * * * * * * * * * * * * * * * * * * * * * * * * * * * * * * * * * * * //

dimensions      [0 0 0 1 0 0 0];

internalField   nonuniform List<scalar> 
400
(
0.976207
0.976705
0.977714
0.979208
0.980954
0.982552
0.983703
0.984377
0.984744
0.984994
0.985222
0.985458
0.985712
0.985974
0.986206
0.98634
0.986272
0.985888
0.985251
0.984729
0.976842
0.977452
0.978674
0.980426
0.982284
0.983659
0.984336
0.984574
0.984655
0.984716
0.984843
0.985085
0.98546
0.985947
0.986449
0.986817
0.986821
0.98629
0.985451
0.984848
0.977832
0.978653
0.980176
0.982013
0.983461
0.984076
0.98405
0.983747
0.98337
0.983085
0.983036
0.983324
0.983952
0.984902
0.986001
0.987002
0.987484
0.987032
0.98582
0.985069
0.978802
0.979842
0.981504
0.982993
0.983624
0.983331
0.982501
0.981445
0.980403
0.979633
0.979332
0.979665
0.980592
0.982131
0.984073
0.986116
0.987703
0.988105
0.986765
0.985584
0.979548
0.980712
0.982242
0.983064
0.982724
0.981446
0.979661
0.977696
0.9759
0.97459
0.973998
0.974318
0.975498
0.97758
0.980375
0.983582
0.986638
0.988677
0.988459
0.986538
0.980037
0.981193
0.982369
0.982373
0.981022
0.978727
0.975945
0.97309
0.970601
0.968813
0.967965
0.96821
0.969544
0.97199
0.975424
0.979588
0.983987
0.987809
0.989715
0.987933
0.980305
0.981332
0.982027
0.9812
0.978904
0.975667
0.971997
0.968412
0.965403
0.963299
0.962295
0.962473
0.963856
0.966454
0.970221
0.974997
0.980381
0.985621
0.989516
0.989935
0.980414
0.981256
0.981467
0.979909
0.976801
0.972759
0.968377
0.964264
0.960928
0.958663
0.9576
0.95775
0.95912
0.961706
0.965518
0.970541
0.976557
0.982889
0.98829
0.991005
0.980415
0.981058
0.980844
0.978703
0.974965
0.970323
0.965443
0.96099
0.957467
0.955127
0.954038
0.954178
0.955519
0.958031
0.96172
0.966676
0.972956
0.98011
0.986719
0.990516
0.980348
0.980828
0.980325
0.97782
0.973676
0.968636
0.963429
0.958757
0.955112
0.952707
0.951575
0.951683
0.952991
0.95544
0.958978
0.963694
0.969889
0.977539
0.985297
0.990145
0.980238
0.980605
0.979942
0.977262
0.972923
0.967701
0.962358
0.957593
0.953876
0.951397
0.950182
0.950211
0.951452
0.953831
0.957235
0.961663
0.967527
0.975312
0.983976
0.989908
0.980097
0.980414
0.979746
0.97713
0.972846
0.967661
0.962345
0.957578
0.953813
0.951246
0.949918
0.949821
0.950934
0.953185
0.956425
0.960542
0.965923
0.973552
0.982918
0.989779
0.979922
0.980241
0.979672
0.97729
0.973268
0.96833
0.963225
0.958598
0.954884
0.952283
0.950856
0.950607
0.951529
0.953555
0.956535
0.960292
0.965082
0.972264
0.982083
0.989765
0.979702
0.980074
0.979714
0.977755
0.974234
0.969775
0.965078
0.96074
0.957172
0.954589
0.953076
0.952638
0.953293
0.954977
0.957559
0.960838
0.964962
0.971516
0.981544
0.989843
0.979415
0.979867
0.979712
0.978215
0.975318
0.971522
0.967442
0.963603
0.960372
0.957954
0.956448
0.955855
0.956205
0.957449
0.959486
0.962177
0.965589
0.9713
0.981265
0.990018
0.979075
0.979628
0.97974
0.978784
0.976646
0.973684
0.970397
0.96722
0.964466
0.962317
0.960872
0.960145
0.960146
0.960863
0.962236
0.964199
0.966839
0.971534
0.981256
0.990293
0.978736
0.979281
0.979479
0.978915
0.977478
0.975401
0.973032
0.970691
0.968604
0.966913
0.96568
0.964942
0.964675
0.964907
0.965635
0.96685
0.968795
0.972597
0.981825
0.990762
0.978497
0.979161
0.979563
0.979331
0.978519
0.977265
0.975772
0.974235
0.972796
0.971564
0.970575
0.969876
0.969462
0.969359
0.969633
0.970258
0.971687
0.974609
0.982888
0.991352
0.97525
0.978432
0.978418
0.9783
0.977861
0.97728
0.976616
0.975999
0.975433
0.975015
0.974709
0.974569
0.974576
0.974718
0.975106
0.975602
0.976875
0.979092
0.985369
0.992363
0.982617
0.984718
0.985841
0.986514
0.986873
0.987097
0.987213
0.987332
0.987416
0.987548
0.987665
0.987842
0.988007
0.988232
0.988449
0.988751
0.989136
0.98995
0.991573
0.994432
)
;

boundaryField
{
    movingWall
    {
        type            fixedValue;
        value           uniform 1;
    }
    fixedWalls
    {
        type            zeroGradient;
    }
    frontAndBack
    {
        type            empty;
    }
}


// ************************************************************************* //
