/*--------------------------------*- C++ -*----------------------------------*\
| =========                 |                                                 |
| \\      /  F ield         | OpenFOAM: The Open Source CFD Toolbox           |
|  \\    /   O peration     | Version:  2212                                  |
|   \\  /    A nd           | Website:  www.openfoam.com                      |
|    \\/     M anipulation  |                                                 |
\*---------------------------------------------------------------------------*/
FoamFile
{
    version     2.0;
    format      ascii;
    arch        "LSB;label=32;scalar=64";
    class       volVectorField;
    location    "6.1";
    object      U;
}
// * * * * * * * * * * * * * * * * * * * * * * * * * * * * * * * * * * * * * //

dimensions      [0 1 -1 0 0 0 0];

internalField   nonuniform List<vector> 
400
(
(0.00167906 -0.00168131 0)
(0.00482969 -0.00188917 0)
(0.00657686 -0.001199 0)
(0.00565889 -0.00057399 0)
(0.00155771 0.000185003 0)
(-0.00683724 0.00173918 0)
(-0.020603 0.00478172 0)
(-0.0395164 0.00872575 0)
(-0.060767 0.0112812 0)
(-0.0790837 0.0105061 0)
(-0.0897622 0.00677503 0)
(-0.0904268 0.00167487 0)
(-0.0802129 -0.00360667 0)
(-0.0600064 -0.00826419 0)
(-0.0335571 -0.0108384 0)
(-0.00534398 -0.00979175 0)
(0.0166703 -0.00478016 0)
(0.0244304 0.00276717 0)
(0.0161615 0.0064634 0)
(0.0043138 0.00471284 0)
(0.00171531 -0.0050546 0)
(0.0031481 -0.00402091 0)
(-0.000436511 0.00059285 0)
(-0.0113443 0.00644007 0)
(-0.031423 0.0140398 0)
(-0.0611162 0.0237507 0)
(-0.0967774 0.0330269 0)
(-0.131362 0.0370577 0)
(-0.15886 0.0334938 0)
(-0.175989 0.0233945 0)
(-0.181345 0.00911942 0)
(-0.17499 -0.00696609 0)
(-0.157496 -0.02314 0)
(-0.129614 -0.0368772 0)
(-0.0936065 -0.0445345 0)
(-0.052214 -0.0418227 0)
(-0.0114373 -0.0263417 0)
(0.0168479 -0.00130489 0)
(0.0178491 0.0161975 0)
(0.00553825 0.0148054 0)
(-0.00024475 -0.0057603 0)
(-0.00539127 0.000819771 0)
(-0.0196144 0.0142986 0)
(-0.0444881 0.0312126 0)
(-0.0802878 0.0493987 0)
(-0.122108 0.0642569 0)
(-0.162216 0.0704805 0)
(-0.195112 0.065975 0)
(-0.218688 0.0521588 0)
(-0.232351 0.031528 0)
(-0.236111 0.00643758 0)
(-0.230638 -0.0210678 0)
(-0.216244 -0.0488093 0)
(-0.192426 -0.0731561 0)
(-0.158921 -0.0889627 0)
(-0.115693 -0.0891879 0)
(-0.0645519 -0.0670225 0)
(-0.0138425 -0.0227003 0)
(0.00946647 0.0178757 0)
(0.0041549 0.023556 0)
(-0.00347225 0.000477351 0)
(-0.017509 0.0172513 0)
(-0.0434911 0.0414757 0)
(-0.0796205 0.068133 0)
(-0.12285 0.0910716 0)
(-0.1657 0.103749 0)
(-0.201736 0.102812 0)
(-0.229033 0.0896007 0)
(-0.247853 0.067284 0)
(-0.258799 0.0385721 0)
(-0.262708 0.00534725 0)
(-0.260386 -0.0310509 0)
(-0.251772 -0.068361 0)
(-0.23582 -0.103634 0)
(-0.210542 -0.131383 0)
(-0.173234 -0.142805 0)
(-0.121336 -0.12572 0)
(-0.0568288 -0.0708641 0)
(-0.000999604 0.00351753 0)
(0.0047418 0.0282099 0)
(-0.0066578 0.0147983 0)
(-0.0287057 0.0440984 0)
(-0.0632321 0.0770334 0)
(-0.104358 0.108817 0)
(-0.14713 0.131082 0)
(-0.18439 0.138067 0)
(-0.212697 0.129389 0)
(-0.232454 0.108657 0)
(-0.24495 0.0797413 0)
(-0.251914 0.0454332 0)
(-0.255029 0.00727346 0)
(-0.25522 -0.0339176 0)
(-0.25226 -0.0769648 0)
(-0.245606 -0.120543 0)
(-0.232445 -0.160673 0)
(-0.208161 -0.188897 0)
(-0.166704 -0.189882 0)
(-0.103386 -0.142838 0)
(-0.0221843 -0.0388869 0)
(0.00737355 0.0270639 0)
(-0.00850109 0.0348671 0)
(-0.0351382 0.0765932 0)
(-0.0730115 0.114852 0)
(-0.113136 0.147559 0)
(-0.150356 0.165873 0)
(-0.179184 0.165813 0)
(-0.198679 0.149621 0)
(-0.210396 0.12239 0)
(-0.216318 0.0884685 0)
(-0.218929 0.050843 0)
(-0.220188 0.0109861 0)
(-0.221095 -0.030668 0)
(-0.22185 -0.0745803 0)
(-0.222556 -0.121117 0)
(-0.221024 -0.169051 0)
(-0.212163 -0.212891 0)
(-0.187884 -0.238446 0)
(-0.139589 -0.218441 0)
(-0.0628055 -0.11891 0)
(0.00583382 0.0141751 0)
(-0.00828074 0.0569711 0)
(-0.0352954 0.109929 0)
(-0.071746 0.150357 0)
(-0.106943 0.181008 0)
(-0.13654 0.193688 0)
(-0.156915 0.186299 0)
(-0.168794 0.163154 0)
(-0.174296 0.130399 0)
(-0.175833 0.0927969 0)
(-0.175901 0.053363 0)
(-0.175998 0.0133403 0)
(-0.176801 -0.0272068 0)
(-0.178857 -0.0694044 0)
(-0.182706 -0.11451 0)
(-0.187705 -0.163628 0)
(-0.190226 -0.215611 0)
(-0.182381 -0.261491 0)
(-0.154169 -0.275044 0)
(-0.0993215 -0.205821 0)
(-0.00890577 -0.0146445 0)
(-0.00612455 0.0775367 0)
(-0.0297482 0.140443 0)
(-0.061342 0.181057 0)
(-0.0897744 0.208135 0)
(-0.111752 0.214713 0)
(-0.12526 0.200393 0)
(-0.131915 0.171177 0)
(-0.134026 0.134042 0)
(-0.134045 0.0939718 0)
(-0.133909 0.053676 0)
(-0.134294 0.0138783 0)
(-0.135385 -0.0257732 0)
(-0.137636 -0.0662754 0)
(-0.14174 -0.108827 0)
(-0.14831 -0.155391 0)
(-0.156036 -0.208326 0)
(-0.158944 -0.265696 0)
(-0.146655 -0.307972 0)
(-0.11218 -0.277085 0)
(-0.0309369 -0.0753064 0)
(-0.00272273 0.0935283 0)
(-0.0203837 0.165502 0)
(-0.0450844 0.205418 0)
(-0.0662489 0.228374 0)
(-0.0814914 0.229326 0)
(-0.0899565 0.209344 0)
(-0.0935559 0.175604 0)
(-0.0944281 0.13559 0)
(-0.0946647 0.0942893 0)
(-0.0954266 0.0539245 0)
(-0.0967561 0.0145924 0)
(-0.0985604 -0.024466 0)
(-0.101008 -0.0640014 0)
(-0.104606 -0.104684 0)
(-0.1105 -0.148124 0)
(-0.119421 -0.198261 0)
(-0.12823 -0.25955 0)
(-0.126449 -0.32327 0)
(-0.107422 -0.334604 0)
(-0.0373221 -0.163326 0)
(0.00122072 0.102654 0)
(-0.00892293 0.183316 0)
(-0.0256004 0.222948 0)
(-0.0395772 0.242534 0)
(-0.0490376 0.239289 0)
(-0.0538906 0.215317 0)
(-0.0558338 0.178569 0)
(-0.0565153 0.136891 0)
(-0.0574455 0.0951839 0)
(-0.0591638 0.0551352 0)
(-0.0614417 0.0162911 0)
(-0.0641354 -0.0223772 0)
(-0.0672372 -0.0614957 0)
(-0.0709276 -0.101282 0)
(-0.0761412 -0.142426 0)
(-0.0844498 -0.188572 0)
(-0.0959675 -0.248064 0)
(-0.100601 -0.324111 0)
(-0.0951365 -0.372055 0)
(-0.0309095 -0.242436 0)
(0.00511194 0.103812 0)
(0.00295933 0.192899 0)
(-0.00537403 0.233427 0)
(-0.0124779 0.250551 0)
(-0.0168576 0.244454 0)
(-0.0187332 0.218237 0)
(-0.0194063 0.18018 0)
(-0.0199172 0.138123 0)
(-0.0212003 0.0967147 0)
(-0.0234258 0.0572646 0)
(-0.0263072 0.0190456 0)
(-0.0297842 -0.0190652 0)
(-0.0338732 -0.0577406 0)
(-0.0385163 -0.0970485 0)
(-0.0442621 -0.136924 0)
(-0.0523455 -0.179776 0)
(-0.065694 -0.235316 0)
(-0.0741989 -0.317862 0)
(-0.081182 -0.396546 0)
(-0.0229362 -0.306973 0)
(0.00844177 0.0973437 0)
(0.0142006 0.193885 0)
(0.0140856 0.236942 0)
(0.0136933 0.253324 0)
(0.0143172 0.246231 0)
(0.0155151 0.219522 0)
(0.0163766 0.181477 0)
(0.0164324 0.139782 0)
(0.0152939 0.0988913 0)
(0.0130135 0.0600529 0)
(0.00984494 0.0225758 0)
(0.00574211 -0.0146654 0)
(0.000562213 -0.0524725 0)
(-0.0055501 -0.0909569 0)
(-0.0130037 -0.12976 0)
(-0.0219491 -0.169902 0)
(-0.0376968 -0.220333 0)
(-0.0487414 -0.304211 0)
(-0.0679087 -0.408295 0)
(-0.0144613 -0.359853 0)
(0.010305 0.0843875 0)
(0.0233761 0.186298 0)
(0.0310293 0.23307 0)
(0.0369502 0.249873 0)
(0.0426027 0.243018 0)
(0.0475476 0.217233 0)
(0.0509739 0.180478 0)
(0.0526372 0.140093 0)
(0.0524911 0.100379 0)
(0.0507471 0.0626524 0)
(0.047629 0.0263999 0)
(0.0430243 -0.00944823 0)
(0.0367655 -0.045798 0)
(0.0289719 -0.0828196 0)
(0.0188482 -0.120155 0)
(0.00754691 -0.158046 0)
(-0.0118487 -0.204037 0)
(-0.0242858 -0.286208 0)
(-0.055868 -0.410811 0)
(-0.00614536 -0.401715 0)
(0.00985156 0.0671741 0)
(0.0289696 0.170514 0)
(0.0442721 0.221997 0)
(0.0567947 0.241054 0)
(0.0680687 0.23611 0)
(0.0777356 0.212747 0)
(0.0849353 0.178464 0)
(0.0893664 0.140148 0)
(0.0911066 0.102033 0)
(0.0904592 0.0656708 0)
(0.0877591 0.0309203 0)
(0.0827109 -0.003244 0)
(0.0752127 -0.0373712 0)
(0.0655471 -0.0720484 0)
(0.0523376 -0.107088 0)
(0.0374453 -0.142382 0)
(0.0130459 -0.183884 0)
(3.94355e-06 -0.262982 0)
(-0.0448372 -0.406532 0)
(0.00275244 -0.43612 0)
(0.00691018 0.0493798 0)
(0.0292968 0.148832 0)
(0.0510086 0.203438 0)
(0.0698571 0.224313 0)
(0.0873048 0.221437 0)
(0.102971 0.201279 0)
(0.115611 0.170697 0)
(0.124544 0.135833 0)
(0.129684 0.100679 0)
(0.131278 0.0669163 0)
(0.129595 0.0347922 0)
(0.124669 0.00347797 0)
(0.116052 -0.0273206 0)
(0.104348 -0.0584693 0)
(0.087304 -0.0900181 0)
(0.0681655 -0.122585 0)
(0.0381616 -0.16051 0)
(0.0237685 -0.236911 0)
(-0.0344895 -0.398806 0)
(0.013455 -0.464317 0)
(0.00237944 0.0346452 0)
(0.0235821 0.123816 0)
(0.0508497 0.179789 0)
(0.0765403 0.20274 0)
(0.101167 0.202407 0)
(0.124013 0.186004 0)
(0.143428 0.159959 0)
(0.158198 0.129553 0)
(0.167908 0.0983995 0)
(0.172768 0.0681888 0)
(0.172724 0.0395153 0)
(0.16849 0.0119698 0)
(0.158668 -0.0147994 0)
(0.144963 -0.0415296 0)
(0.123713 -0.06851 0)
(0.100231 -0.0972704 0)
(0.0644469 -0.132424 0)
(0.0469081 -0.207261 0)
(-0.0227628 -0.386977 0)
(0.0285046 -0.485486 0)
(-0.00342141 0.0286591 0)
(0.0100306 0.101471 0)
(0.0370154 0.148583 0)
(0.0688321 0.1693 0)
(0.10168 0.170497 0)
(0.133355 0.158203 0)
(0.161307 0.137779 0)
(0.183809 0.113398 0)
(0.199819 0.0881442 0)
(0.209709 0.063547 0)
(0.212614 0.0403505 0)
(0.210349 0.0184316 0)
(0.2001 -0.00258471 0)
(0.185497 -0.023167 0)
(0.160736 -0.0437898 0)
(0.134183 -0.0675267 0)
(0.0927327 -0.101476 0)
(0.06978 -0.179856 0)
(-0.00442136 -0.369986 0)
(0.0521345 -0.491607 0)
(-0.0139819 0.0185614 0)
(-0.00751156 0.0881861 0)
(0.019163 0.12414 0)
(0.0563397 0.13722 0)
(0.0974348 0.136786 0)
(0.13776 0.127595 0)
(0.173958 0.112943 0)
(0.20375 0.0951791 0)
(0.225603 0.0767309 0)
(0.240659 0.0586129 0)
(0.246676 0.0417793 0)
(0.247584 0.0261248 0)
(0.238266 0.011805 0)
(0.226476 -0.0019536 0)
(0.201535 -0.0159644 0)
(0.177624 -0.0348888 0)
(0.13336 -0.067669 0)
(0.107742 -0.145926 0)
(0.0374288 -0.326111 0)
(0.0923497 -0.455869 0)
(-0.105998 0.0824491 0)
(-0.07774 0.0690182 0)
(-0.0485717 0.0733518 0)
(0.00373312 0.0778422 0)
(0.0571942 0.078158 0)
(0.109869 0.0738865 0)
(0.156984 0.0665538 0)
(0.199295 0.0571579 0)
(0.231367 0.0474974 0)
(0.259487 0.0378589 0)
(0.275202 0.0292139 0)
(0.290354 0.0212481 0)
(0.290726 0.0145116 0)
(0.294866 0.00814272 0)
(0.278621 0.00118875 0)
(0.271464 -0.00994987 0)
(0.232212 -0.0355137 0)
(0.218087 -0.095396 0)
(0.150199 -0.229723 0)
(0.17067 -0.341462 0)
(0.129981 0.103752 0)
(0.158345 0.07525 0)
(0.212205 0.0532532 0)
(0.270713 0.0416433 0)
(0.323272 0.0359265 0)
(0.375685 0.0319555 0)
(0.420246 0.0289196 0)
(0.465529 0.0255823 0)
(0.498596 0.022905 0)
(0.533823 0.0197141 0)
(0.553249 0.0175541 0)
(0.579058 0.0146189 0)
(0.585206 0.0131773 0)
(0.603566 0.0103607 0)
(0.595016 0.00940012 0)
(0.603552 0.00501455 0)
(0.567777 0.000100904 0)
(0.547633 -0.0183092 0)
(0.435727 -0.0504147 0)
(0.33677 -0.101389 0)
)
;

boundaryField
{
    movingWall
    {
        type            fixedValue;
        value           uniform (1 0 0);
    }
    fixedWalls
    {
        type            noSlip;
    }
    frontAndBack
    {
        type            empty;
    }
}


// ************************************************************************* //
