/*--------------------------------*- C++ -*----------------------------------*\
| =========                 |                                                 |
| \\      /  F ield         | OpenFOAM: The Open Source CFD Toolbox           |
|  \\    /   O peration     | Version:  2212                                  |
|   \\  /    A nd           | Website:  www.openfoam.com                      |
|    \\/     M anipulation  |                                                 |
\*---------------------------------------------------------------------------*/
FoamFile
{
    version     2.0;
    format      ascii;
    arch        "LSB;label=32;scalar=64";
    class       surfaceScalarField;
    location    "4.8";
    object      phi;
}
// * * * * * * * * * * * * * * * * * * * * * * * * * * * * * * * * * * * * * //

dimensions      [0 3 -1 0 0 0 0];

oriented        oriented;

internalField   nonuniform List<scalar> 
760
(
1.55047e-07
-1.55036e-07
2.91357e-07
-1.36309e-07
3.07166e-07
-1.58088e-08
1.80904e-07
1.26262e-07
-1.2236e-07
3.03264e-07
-6.66144e-07
5.43783e-07
-1.48232e-06
8.16179e-07
-2.48426e-06
1.00193e-06
-3.47098e-06
9.86726e-07
-4.21013e-06
7.39152e-07
-4.53483e-06
3.24697e-07
-4.3478e-06
-1.87032e-07
-3.59248e-06
-7.55322e-07
-2.38259e-06
-1.20989e-06
-9.47663e-07
-1.43492e-06
3.38047e-07
-1.28571e-06
1.08165e-06
-7.43605e-07
1.02837e-06
5.32843e-08
4.59395e-07
5.68973e-07
4.59395e-07
1.23231e-07
-2.78267e-07
7.13301e-08
-8.44072e-08
-3.00006e-07
3.55527e-07
-1.07955e-06
9.05807e-07
-2.31203e-06
1.53575e-06
-3.91742e-06
2.14917e-06
-5.64648e-06
2.54524e-06
-7.18718e-06
2.54263e-06
-8.31528e-06
2.11482e-06
-8.92088e-06
1.34475e-06
-8.95686e-06
3.60675e-07
-8.40048e-06
-7.43409e-07
-7.28293e-06
-1.87287e-06
-5.63708e-06
-2.85574e-06
-3.60645e-06
-3.46555e-06
-1.49506e-06
-3.39711e-06
1.71571e-07
-2.41023e-06
8.53609e-07
-6.28753e-07
5.23624e-07
8.98959e-07
9.83019e-07
-1.28961e-07
-1.49306e-07
-6.35099e-07
4.21731e-07
-1.62327e-06
1.34369e-06
-3.13413e-06
2.41667e-06
-5.04277e-06
3.44438e-06
-7.05146e-06
4.15786e-06
-8.84606e-06
4.33984e-06
-1.02466e-05
3.94316e-06
-1.12012e-05
3.06941e-06
-1.17021e-05
1.8457e-06
-1.1698e-05
3.56574e-07
-1.12419e-05
-1.19952e-06
-1.03136e-05
-2.80118e-06
-8.85874e-06
-4.3106e-06
-6.8572e-06
-5.46709e-06
-4.39769e-06
-5.85662e-06
-1.87876e-06
-4.92916e-06
-8.89567e-08
-2.41855e-06
2.9365e-07
5.16352e-07
1.27667e-06
-4.99882e-07
3.50576e-07
-1.55656e-06
1.47841e-06
-3.11031e-06
2.89744e-06
-5.06439e-06
4.37076e-06
-7.16025e-06
5.54023e-06
-9.09147e-06
6.08909e-06
-1.06562e-05
5.90458e-06
-1.18117e-05
5.09861e-06
-1.25858e-05
3.84353e-06
-1.30134e-05
2.27331e-06
-1.30797e-05
4.22913e-07
-1.28426e-05
-1.43661e-06
-1.22639e-05
-3.37992e-06
-1.12416e-05
-5.33294e-06
-9.64456e-06
-7.0641e-06
-7.34815e-06
-8.15303e-06
-4.39059e-06
-7.88672e-06
-1.37749e-06
-5.43165e-06
1.19666e-07
-9.808e-07
1.39634e-06
-8.59028e-07
1.2096e-06
-2.35316e-06
2.97254e-06
-4.21659e-06
4.76087e-06
-6.2556e-06
6.40977e-06
-8.19053e-06
7.47517e-06
-9.79933e-06
7.69788e-06
-1.1005e-05
7.11024e-06
-1.18338e-05
5.9274e-06
-1.23476e-05
4.35736e-06
-1.26195e-05
2.54517e-06
-1.27401e-05
5.43535e-07
-1.26968e-05
-1.47989e-06
-1.24803e-05
-3.59645e-06
-1.20111e-05
-5.8021e-06
-1.11027e-05
-7.97252e-06
-9.46703e-06
-9.78869e-06
-6.80533e-06
-1.05484e-05
-3.21643e-06
-9.02056e-06
-2.61904e-07
-3.93532e-06
1.13443e-06
-1.08207e-06
2.29168e-06
-2.77233e-06
4.6628e-06
-4.65794e-06
6.64647e-06
-6.50817e-06
8.26e-06
-8.09958e-06
9.06658e-06
-9.30109e-06
8.89939e-06
-1.01081e-05
7.91727e-06
-1.05856e-05
6.40484e-06
-1.08239e-05
4.59568e-06
-1.09234e-05
2.64465e-06
-1.10057e-05
6.25852e-07
-1.10585e-05
-1.42706e-06
-1.10973e-05
-3.55768e-06
-1.10923e-05
-5.80703e-06
-1.08894e-05
-8.17548e-06
-1.01608e-05
-1.05173e-05
-8.41267e-06
-1.22965e-05
-5.23064e-06
-1.22026e-05
-1.15649e-06
-8.00947e-06
-2.20621e-08
-1.10506e-06
3.39674e-06
-2.74541e-06
6.30315e-06
-4.43571e-06
8.33677e-06
-5.96479e-06
9.78908e-06
-7.1729e-06
1.02747e-05
-7.99725e-06
9.72373e-06
-8.47494e-06
8.39496e-06
-8.69279e-06
6.6227e-06
-8.7547e-06
4.65759e-06
-8.75841e-06
2.64836e-06
-8.78733e-06
6.54767e-07
-8.86053e-06
-1.35386e-06
-8.9977e-06
-3.42051e-06
-9.20985e-06
-5.59488e-06
-9.43942e-06
-7.94591e-06
-9.45389e-06
-1.05028e-05
-8.73374e-06
-1.30167e-05
-6.52258e-06
-1.44138e-05
-2.41751e-06
-1.21145e-05
-2.43957e-06
-9.30634e-07
4.32737e-06
-2.33577e-06
7.70829e-06
-3.71705e-06
9.71805e-06
-4.89109e-06
1.09631e-05
-5.7569e-06
1.11405e-05
-6.29707e-06
1.02639e-05
-6.5682e-06
8.66609e-06
-6.66125e-06
6.71575e-06
-6.67288e-06
4.66921e-06
-6.67695e-06
2.65243e-06
-6.71013e-06
6.87947e-07
-6.78985e-06
-1.27413e-06
-6.93731e-06
-3.27305e-06
-7.18291e-06
-5.34928e-06
-7.54305e-06
-7.58577e-06
-7.92532e-06
-1.01206e-05
-7.91845e-06
-1.30235e-05
-6.70476e-06
-1.56274e-05
-3.57778e-06
-1.52415e-05
-6.01735e-06
-6.21333e-07
4.94871e-06
-1.6791e-06
8.76605e-06
-2.70801e-06
1.0747e-05
-3.54331e-06
1.17984e-05
-4.12925e-06
1.17264e-05
-4.4755e-06
1.06101e-05
-4.64058e-06
8.83117e-06
-4.70302e-06
6.77819e-06
-4.73569e-06
4.70189e-06
-4.78291e-06
2.69965e-06
-4.85521e-06
7.60252e-07
-4.95933e-06
-1.17002e-06
-5.10537e-06
-3.12701e-06
-5.32214e-06
-5.13251e-06
-5.66456e-06
-7.24335e-06
-6.14515e-06
-9.63997e-06
-6.5438e-06
-1.26249e-05
-6.11847e-06
-1.60528e-05
-3.91693e-06
-1.74431e-05
-9.93429e-06
-2.30752e-07
5.17946e-06
-8.8842e-07
9.42372e-06
-1.55727e-06
1.14158e-05
-2.08433e-06
1.23255e-05
-2.4416e-06
1.20837e-05
-2.65312e-06
1.08217e-05
-2.76697e-06
8.94502e-06
-2.83656e-06
6.84779e-06
-2.907e-06
4.77233e-06
-3.00068e-06
2.79333e-06
-3.12049e-06
8.80059e-07
-3.26625e-06
-1.02426e-06
-3.43832e-06
-2.95494e-06
-3.64924e-06
-4.92159e-06
-3.95029e-06
-6.94231e-06
-4.42328e-06
-9.16698e-06
-5.01385e-06
-1.20343e-05
-5.11794e-06
-1.59487e-05
-3.55454e-06
-1.90064e-05
-1.34888e-05
1.63439e-07
5.01602e-06
-6.88432e-08
9.656e-06
-4.00338e-07
1.17473e-05
-6.49987e-07
1.25751e-05
-8.03478e-07
1.22372e-05
-8.91827e-07
1.091e-05
-9.54541e-07
9.00774e-06
-1.02365e-06
6.9169e-06
-1.11591e-06
4.86459e-06
-1.2391e-06
2.91652e-06
-1.39559e-06
1.03655e-06
-1.58756e-06
-8.32288e-07
-1.81382e-06
-2.72867e-06
-2.07261e-06
-4.66281e-06
-2.39201e-06
-6.62291e-06
-2.86484e-06
-8.69415e-06
-3.55437e-06
-1.13448e-05
-4.02266e-06
-1.54804e-05
-3.024e-06
-2.00051e-05
-1.65128e-05
4.99425e-07
4.51659e-06
6.96925e-07
9.4585e-06
7.40111e-07
1.17041e-05
7.75887e-07
1.25394e-05
8.21133e-07
1.2192e-05
8.5033e-07
1.08808e-05
8.43549e-07
9.01452e-06
7.92457e-07
6.96799e-06
6.98392e-07
4.95866e-06
5.63301e-07
3.05161e-06
3.82404e-07
1.21745e-06
1.49474e-07
-5.99359e-07
-1.37447e-07
-2.44175e-06
-4.85007e-07
-4.31525e-06
-8.97966e-07
-6.20995e-06
-1.42165e-06
-8.17047e-06
-2.20329e-06
-1.05632e-05
-2.95491e-06
-1.47288e-05
-2.46149e-06
-2.04985e-05
-1.89743e-05
7.54051e-07
3.76254e-06
1.3504e-06
8.86215e-06
1.74247e-06
1.1312e-05
2.07152e-06
1.22103e-05
2.34445e-06
1.1919e-05
2.53071e-06
1.06946e-05
2.62181e-06
8.92341e-06
2.62849e-06
6.96131e-06
2.56515e-06
5.02199e-06
2.43918e-06
3.17758e-06
2.24368e-06
1.41295e-06
1.96466e-06
-3.20346e-07
1.60189e-06
-2.07898e-06
1.15034e-06
-3.86369e-06
6.05142e-07
-5.66475e-06
-8.61286e-08
-7.4792e-06
-9.60134e-07
-9.68916e-06
-1.92334e-06
-1.37656e-05
-1.92721e-06
-2.04946e-05
-2.09015e-05
8.68174e-07
2.89437e-06
1.80548e-06
7.92484e-06
2.54589e-06
1.05716e-05
3.18594e-06
1.15703e-05
3.73288e-06
1.13721e-05
4.14318e-06
1.02843e-05
4.40064e-06
8.66595e-06
4.51927e-06
6.84268e-06
4.52253e-06
5.01874e-06
4.42614e-06
3.27396e-06
4.22851e-06
1.61058e-06
3.89967e-06
8.49114e-09
3.45621e-06
-1.63552e-06
2.87437e-06
-3.28186e-06
2.15439e-06
-4.94478e-06
1.31393e-06
-6.63874e-06
2.61395e-07
-8.63662e-06
-9.63655e-07
-1.25405e-05
-1.42983e-06
-2.00285e-05
-2.23314e-05
8.04077e-07
2.09029e-06
1.94902e-06
6.7799e-06
2.98985e-06
9.5308e-06
3.96193e-06
1.05982e-05
4.83796e-06
1.0496e-05
5.55168e-06
9.57053e-06
6.06373e-06
8.15391e-06
6.37711e-06
6.5293e-06
6.5132e-06
4.88265e-06
6.4908e-06
3.29636e-06
6.30914e-06
1.79225e-06
5.9639e-06
3.53732e-07
5.42529e-06
-1.09691e-06
4.69836e-06
-2.55492e-06
3.77511e-06
-4.02152e-06
2.68394e-06
-5.54757e-06
1.38321e-06
-7.33589e-06
-1.58517e-07
-1.09988e-05
-9.16155e-07
-1.92708e-05
-2.32475e-05
5.75894e-07
1.5144e-06
1.75496e-06
5.60083e-06
3.09124e-06
8.19452e-06
4.44055e-06
9.24887e-06
5.70547e-06
9.23113e-06
6.78732e-06
8.48869e-06
7.62056e-06
7.32066e-06
8.19257e-06
5.95729e-06
8.51611e-06
4.55911e-06
8.6086e-06
3.20387e-06
8.47712e-06
1.92373e-06
8.11938e-06
7.11475e-07
7.49174e-06
-4.69278e-07
6.61093e-06
-1.67411e-06
5.46399e-06
-2.87458e-06
4.09177e-06
-4.17535e-06
2.56476e-06
-5.80888e-06
9.51802e-07
-9.38584e-06
-1.46834e-07
-1.81722e-05
-2.33943e-05
1.51193e-07
1.3632e-06
1.03654e-06
4.71549e-06
2.51159e-06
6.71947e-06
4.23161e-06
7.52886e-06
5.95189e-06
7.51084e-06
7.48502e-06
6.95557e-06
8.72827e-06
6.0774e-06
9.652e-06
5.03356e-06
1.02515e-05
3.95959e-06
1.0539e-05
2.91644e-06
1.05205e-05
1.94217e-06
1.02021e-05
1.02986e-06
9.53975e-06
1.93095e-07
8.55231e-06
-6.86675e-07
7.23176e-06
-1.55403e-06
5.62905e-06
-2.57264e-06
3.90364e-06
-4.08347e-06
2.2359e-06
-7.7181e-06
6.51283e-07
-1.65876e-05
-2.27431e-05
-5.16626e-07
1.87983e-06
1.9966e-07
3.9992e-06
1.75308e-06
5.16605e-06
3.8144e-06
5.46754e-06
5.96784e-06
5.35741e-06
7.92741e-06
4.99599e-06
9.5566e-06
4.44822e-06
1.08142e-05
3.77599e-06
1.16828e-05
3.09099e-06
1.21792e-05
2.42001e-06
1.23076e-05
1.81381e-06
1.2088e-05
1.24942e-06
1.15432e-05
7.37917e-07
1.06458e-05
2.10686e-07
9.4001e-06
-3.08293e-07
7.87702e-06
-1.04956e-06
6.26232e-06
-2.46877e-06
4.45393e-06
-5.90971e-06
2.05445e-06
-1.41881e-05
-2.06886e-05
-4.17867e-06
6.0585e-06
-3.64179e-06
3.46232e-06
-1.24822e-06
2.77248e-06
1.54829e-06
2.67102e-06
4.28582e-06
2.61987e-06
6.81845e-06
2.46337e-06
9.03341e-06
2.23326e-06
1.08708e-05
1.93858e-06
1.23127e-05
1.64915e-06
1.33862e-05
1.34651e-06
1.41085e-05
1.09144e-06
1.45244e-05
8.33576e-07
1.46219e-05
6.40395e-07
1.44109e-05
4.21672e-07
1.38842e-05
2.18385e-07
1.30573e-05
-2.22593e-07
1.19193e-05
-1.33087e-06
1.01111e-05
-4.10141e-06
5.63732e-06
-9.71437e-06
-1.50513e-05
6.0585e-06
9.52082e-06
1.22933e-05
1.49643e-05
1.75842e-05
2.00476e-05
2.22808e-05
2.42194e-05
2.58686e-05
2.72151e-05
2.83065e-05
2.91401e-05
2.97805e-05
3.02022e-05
3.04205e-05
3.01979e-05
2.88671e-05
2.47657e-05
1.50513e-05
)
;

boundaryField
{
    movingWall
    {
        type            calculated;
        value           uniform 0;
    }
    fixedWalls
    {
        type            calculated;
        value           uniform 0;
    }
    frontAndBack
    {
        type            empty;
        value           nonuniform List<scalar> 0();
    }
}


// ************************************************************************* //
