/*--------------------------------*- C++ -*----------------------------------*\
| =========                 |                                                 |
| \\      /  F ield         | OpenFOAM: The Open Source CFD Toolbox           |
|  \\    /   O peration     | Version:  2212                                  |
|   \\  /    A nd           | Website:  www.openfoam.com                      |
|    \\/     M anipulation  |                                                 |
\*---------------------------------------------------------------------------*/
FoamFile
{
    version     2.0;
    format      ascii;
    arch        "LSB;label=32;scalar=64";
    class       surfaceScalarField;
    location    "3";
    object      phi;
}
// * * * * * * * * * * * * * * * * * * * * * * * * * * * * * * * * * * * * * //

dimensions      [0 3 -1 0 0 0 0];

oriented        oriented;

internalField   nonuniform List<scalar> 
760
(
1.44564e-07
-1.44563e-07
2.69281e-07
-1.24718e-07
2.80245e-07
-1.09636e-08
1.55377e-07
1.24868e-07
-1.39907e-07
2.95284e-07
-6.65569e-07
5.25662e-07
-1.45237e-06
7.86798e-07
-2.42117e-06
9.68806e-07
-3.38209e-06
9.60915e-07
-4.11025e-06
7.28156e-07
-4.43868e-06
3.28432e-07
-4.27108e-06
-1.67599e-07
-3.54572e-06
-7.25355e-07
-2.37122e-06
-1.1745e-06
-9.70505e-07
-1.40071e-06
2.90813e-07
-1.26132e-06
1.03127e-06
-7.40456e-07
9.94816e-07
3.64544e-08
4.46906e-07
5.4791e-07
4.46906e-07
1.06682e-07
-2.51245e-07
4.28837e-08
-6.09196e-08
-3.22452e-07
3.54373e-07
-1.07676e-06
8.79179e-07
-2.26514e-06
1.48366e-06
-3.81618e-06
2.0767e-06
-5.49727e-06
2.46789e-06
-7.00837e-06
2.47991e-06
-8.12543e-06
2.07797e-06
-8.73443e-06
1.33716e-06
-8.78587e-06
3.79866e-07
-8.25379e-06
-6.99678e-07
-7.16868e-06
-1.81046e-06
-5.56128e-06
-2.78191e-06
-3.57152e-06
-3.39047e-06
-1.49719e-06
-3.33565e-06
1.42288e-07
-2.37993e-06
8.2366e-07
-6.44917e-07
5.10193e-07
8.61378e-07
9.57099e-07
-1.38408e-07
-1.12837e-07
-6.37897e-07
4.38569e-07
-1.59545e-06
1.31193e-06
-3.05302e-06
2.33675e-06
-4.8996e-06
3.33024e-06
-6.85662e-06
4.03372e-06
-8.61954e-06
4.23081e-06
-1.00054e-05
3.86573e-06
-1.09563e-05
3.02888e-06
-1.14617e-05
1.84256e-06
-1.14743e-05
3.92479e-07
-1.10362e-05
-1.13772e-06
-1.01325e-05
-2.71424e-06
-8.70922e-06
-4.20515e-06
-6.74574e-06
-5.35395e-06
-4.33037e-06
-5.75102e-06
-1.85451e-06
-4.8558e-06
-9.42016e-08
-2.40522e-06
2.88883e-07
4.78294e-07
1.24598e-06
-4.89e-07
3.76164e-07
-1.5151e-06
1.46467e-06
-3.01608e-06
2.8129e-06
-4.90783e-06
4.2285e-06
-6.94983e-06
5.37224e-06
-8.84711e-06
5.931e-06
-1.03968e-05
5.78046e-06
-1.15479e-05
5.01689e-06
-1.23242e-05
3.80512e-06
-1.27586e-05
2.27695e-06
-1.28385e-05
4.72454e-07
-1.26149e-05
-1.36134e-06
-1.20542e-05
-3.27499e-06
-1.10548e-05
-5.2045e-06
-9.48665e-06
-6.9221e-06
-7.22677e-06
-8.0109e-06
-4.31624e-06
-7.76633e-06
-1.35739e-06
-5.36408e-06
1.16373e-07
-9.95464e-07
1.36235e-06
-8.29018e-07
1.20518e-06
-2.2719e-06
2.90755e-06
-4.07475e-06
4.61575e-06
-6.05895e-06
6.2127e-06
-7.95773e-06
7.27102e-06
-9.5504e-06
7.52367e-06
-1.07529e-05
6.98293e-06
-1.15848e-05
5.84884e-06
-1.21051e-05
4.32538e-06
-1.23852e-05
2.55708e-06
-1.2512e-05
5.99248e-07
-1.248e-05
-1.39338e-06
-1.22773e-05
-3.47767e-06
-1.18234e-05
-5.65836e-06
-1.09326e-05
-7.81293e-06
-9.31959e-06
-9.62391e-06
-6.69352e-06
-1.03924e-05
-3.16005e-06
-8.89755e-06
-2.59726e-07
-3.89578e-06
1.10263e-06
-1.03833e-06
2.24351e-06
-2.6703e-06
4.53952e-06
-4.50002e-06
6.44547e-06
-6.30913e-06
8.02182e-06
-7.87935e-06
8.84124e-06
-9.07541e-06
8.71973e-06
-9.88441e-06
7.79194e-06
-1.03659e-05
6.33033e-06
-1.0608e-05
4.56749e-06
-1.07109e-05
2.65993e-06
-1.0795e-05
6.83353e-07
-1.08578e-05
-1.33056e-06
-1.09095e-05
-3.42595e-06
-1.09194e-05
-5.64846e-06
-1.07311e-05
-8.00118e-06
-1.00164e-05
-1.03387e-05
-8.2865e-06
-1.21223e-05
-5.14004e-06
-1.2044e-05
-1.1356e-06
-7.90022e-06
-3.29696e-08
-1.05779e-06
3.3013e-06
-2.64287e-06
6.12461e-06
-4.28798e-06
8.09058e-06
-5.78743e-06
9.52126e-06
-6.98264e-06
1.00364e-05
-7.80439e-06
9.54148e-06
-8.28194e-06
8.26949e-06
-8.4978e-06
6.54619e-06
-8.5549e-06
4.62459e-06
-8.55327e-06
2.6583e-06
-8.57996e-06
7.10045e-07
-8.65949e-06
-1.25103e-06
-8.81023e-06
-3.2752e-06
-9.04219e-06
-5.41651e-06
-9.29361e-06
-7.74976e-06
-9.32629e-06
-1.0306e-05
-8.61889e-06
-1.28297e-05
-6.4267e-06
-1.42362e-05
-2.3718e-06
-1.19551e-05
-2.40477e-06
-8.89769e-07
4.19107e-06
-2.24869e-06
7.48353e-06
-3.59531e-06
9.4372e-06
-4.74789e-06
1.06738e-05
-5.60369e-06
1.08922e-05
-6.13913e-06
1.00769e-05
-6.40465e-06
8.535e-06
-6.48838e-06
6.62992e-06
-6.48809e-06
4.62431e-06
-6.48134e-06
2.65154e-06
-6.50928e-06
7.37993e-07
-6.59121e-06
-1.1691e-06
-6.74967e-06
-3.11674e-06
-7.01573e-06
-5.15045e-06
-7.40354e-06
-7.36195e-06
-7.81377e-06
-9.89579e-06
-7.82651e-06
-1.28169e-05
-6.62489e-06
-1.54378e-05
-3.51366e-06
-1.50663e-05
-5.91844e-06
-5.92979e-07
4.78405e-06
-1.61633e-06
8.50687e-06
-2.6202e-06
1.04411e-05
-3.43952e-06
1.14932e-05
-4.01601e-06
1.14687e-05
-4.35477e-06
1.04157e-05
-4.51043e-06
8.69066e-06
-4.56056e-06
6.68005e-06
-4.58e-06
4.64374e-06
-4.61656e-06
2.6881e-06
-4.68298e-06
8.04413e-07
-4.78625e-06
-1.06583e-06
-4.93808e-06
-2.96491e-06
-5.16922e-06
-4.91931e-06
-5.53636e-06
-6.99482e-06
-6.04852e-06
-9.38362e-06
-6.47306e-06
-1.23924e-05
-6.05969e-06
-1.58512e-05
-3.87124e-06
-1.72548e-05
-9.78968e-06
-2.19437e-07
5.00348e-06
-8.55483e-07
9.14292e-06
-1.50813e-06
1.10937e-05
-2.02389e-06
1.20089e-05
-2.37239e-06
1.18172e-05
-2.57507e-06
1.06184e-05
-2.67871e-06
8.7943e-06
-2.73708e-06
6.73842e-06
-2.79713e-06
4.70379e-06
-2.88307e-06
2.77405e-06
-2.99792e-06
9.19261e-07
-3.14083e-06
-9.22919e-07
-3.31297e-06
-2.79277e-06
-3.52908e-06
-4.7032e-06
-3.84557e-06
-6.67833e-06
-4.3456e-06
-8.88359e-06
-4.96461e-06
-1.17734e-05
-5.08352e-06
-1.57323e-05
-3.52984e-06
-1.88085e-05
-1.33195e-05
1.56383e-07
4.8471e-06
-6.73195e-08
9.36662e-06
-3.9029e-07
1.14167e-05
-6.33465e-07
1.22521e-05
-7.80487e-07
1.19643e-05
-8.61228e-07
1.06991e-05
-9.15651e-07
8.84872e-06
-9.77119e-07
6.79989e-06
-1.06338e-06
4.79005e-06
-1.18214e-06
2.89281e-06
-1.33466e-06
1.07179e-06
-1.52224e-06
-7.35339e-07
-1.74409e-06
-2.57092e-06
-2.00015e-06
-4.44714e-06
-2.32289e-06
-6.35559e-06
-2.81233e-06
-8.39415e-06
-3.52597e-06
-1.10597e-05
-4.00795e-06
-1.52503e-05
-3.0136e-06
-1.98028e-05
-1.63331e-05
4.74623e-07
4.37248e-06
6.63947e-07
9.1773e-06
7.05065e-07
1.13756e-05
7.42008e-07
1.22152e-05
7.9177e-07
1.19145e-05
8.27246e-07
1.06636e-05
8.26151e-07
8.84982e-06
7.7888e-07
6.84716e-06
6.87272e-07
4.88166e-06
5.54537e-07
3.02554e-06
3.77505e-07
1.24882e-06
1.50249e-07
-5.08083e-07
-1.29615e-07
-2.29106e-06
-4.68951e-07
-4.10781e-06
-8.75872e-07
-5.94867e-06
-1.40346e-06
-7.86656e-06
-2.20016e-06
-1.0263e-05
-2.96114e-06
-1.44893e-05
-2.4652e-06
-2.02988e-05
-1.87983e-05
7.12935e-07
3.65954e-06
1.28489e-06
8.60534e-06
1.66417e-06
1.09963e-05
1.98755e-06
1.18918e-05
2.26134e-06
1.16407e-05
2.45135e-06
1.04736e-05
2.54528e-06
8.75589e-06
2.55252e-06
6.83992e-06
2.48856e-06
4.94562e-06
2.36336e-06
3.15073e-06
2.17245e-06
1.43973e-06
1.90139e-06
-2.37018e-07
1.54838e-06
-1.93805e-06
1.10868e-06
-3.66811e-06
5.76372e-07
-5.41636e-06
-1.06041e-07
-7.18415e-06
-9.85168e-07
-9.3839e-06
-1.95186e-06
-1.35226e-05
-1.94096e-06
-2.03097e-05
-2.07393e-05
8.17653e-07
2.84189e-06
1.71373e-06
7.70926e-06
2.42858e-06
1.02815e-05
3.05381e-06
1.12665e-05
3.5944e-06
1.11001e-05
4.00326e-06
1.00647e-05
4.26004e-06
8.49911e-06
4.37689e-06
6.72307e-06
4.37821e-06
4.9443e-06
4.28155e-06
3.24739e-06
4.08632e-06
1.63496e-06
3.77209e-06
7.72137e-08
3.3395e-06
-1.50547e-06
2.77374e-06
-3.10235e-06
2.07289e-06
-4.7155e-06
1.25064e-06
-6.3619e-06
2.09869e-07
-8.34313e-06
-1.00937e-06
-1.23034e-05
-1.45172e-06
-1.98673e-05
-2.2191e-05
7.54492e-07
2.0874e-06
1.84281e-06
6.62094e-06
2.84439e-06
9.27988e-06
3.79048e-06
1.03204e-05
4.65046e-06
1.02401e-05
5.35524e-06
9.35996e-06
5.86155e-06
7.9928e-06
6.17e-06
6.41462e-06
6.30247e-06
4.81183e-06
6.27987e-06
3.26999e-06
6.10446e-06
1.81038e-06
5.76603e-06
4.15642e-07
5.24429e-06
-9.83731e-07
4.53819e-06
-2.39625e-06
3.64049e-06
-3.8178e-06
2.57962e-06
-5.30103e-06
1.30676e-06
-7.07027e-06
-2.02153e-07
-1.07945e-05
-9.48681e-07
-1.91208e-05
-2.31397e-05
5.37976e-07
1.54942e-06
1.65204e-06
5.50687e-06
2.93389e-06
7.99803e-06
4.23963e-06
9.01471e-06
5.47327e-06
9.00651e-06
6.53447e-06
8.29876e-06
7.35423e-06
7.17303e-06
7.91699e-06
5.85187e-06
8.23498e-06
4.49384e-06
8.32694e-06
3.17803e-06
8.20052e-06
1.9368e-06
7.85451e-06
7.61649e-07
7.24644e-06
-3.75658e-07
6.39183e-06
-1.54164e-06
5.27776e-06
-2.70373e-06
3.94733e-06
-3.9706e-06
2.4593e-06
-5.58225e-06
8.70743e-07
-9.20592e-06
-1.85138e-07
-1.80649e-05
-2.33248e-05
1.29265e-07
1.42016e-06
9.52508e-07
4.68363e-06
2.36424e-06
6.58629e-06
4.02559e-06
7.35335e-06
5.6985e-06
7.3336e-06
7.19725e-06
6.80001e-06
8.41626e-06
5.95402e-06
9.32329e-06
4.94484e-06
9.91208e-06
3.90505e-06
1.01959e-05
2.89421e-06
1.01802e-05
1.95251e-06
9.87163e-06
1.07021e-06
9.23653e-06
2.59442e-07
8.27714e-06
-5.82254e-07
6.99789e-06
-1.42448e-06
5.44678e-06
-2.41948e-06
3.77933e-06
-3.91479e-06
2.1602e-06
-7.5868e-06
6.21627e-07
-1.65263e-05
-2.27032e-05
-5.0077e-07
1.92093e-06
1.65037e-07
4.01783e-06
1.64118e-06
5.11015e-06
3.62244e-06
5.3721e-06
5.70632e-06
5.24971e-06
7.61262e-06
4.89371e-06
9.20253e-06
4.36411e-06
1.04334e-05
3.71402e-06
1.1285e-05
3.05337e-06
1.17754e-05
2.40386e-06
1.19088e-05
1.81905e-06
1.17064e-05
1.27269e-06
1.11832e-05
7.82569e-07
1.03242e-05
2.76776e-07
9.13293e-06
-2.33209e-07
7.67118e-06
-9.57732e-07
6.12727e-06
-2.37088e-06
4.37993e-06
-5.83947e-06
2.02341e-06
-1.41698e-05
-2.06798e-05
-4.16213e-06
6.08305e-06
-3.63721e-06
3.49291e-06
-1.29697e-06
2.76991e-06
1.42933e-06
2.6458e-06
4.09741e-06
2.58163e-06
6.56944e-06
2.42169e-06
8.73753e-06
2.19603e-06
1.05424e-05
1.90915e-06
1.19659e-05
1.62984e-06
1.30334e-05
1.33642e-06
1.37611e-05
1.0913e-06
1.4192e-05
8.41797e-07
1.43168e-05
6.57822e-07
1.41492e-05
4.44291e-07
1.36698e-05
2.4626e-07
1.28932e-05
-1.8116e-07
1.182e-05
-1.29765e-06
1.00685e-05
-4.088e-06
5.61974e-06
-9.72105e-06
-1.506e-05
6.08305e-06
9.57597e-06
1.23459e-05
1.49917e-05
1.75733e-05
1.9995e-05
2.2191e-05
2.41002e-05
2.573e-05
2.70664e-05
2.81577e-05
2.89995e-05
2.96573e-05
3.01016e-05
3.03479e-05
3.01667e-05
2.88691e-05
2.47811e-05
1.506e-05
)
;

boundaryField
{
    movingWall
    {
        type            calculated;
        value           uniform 0;
    }
    fixedWalls
    {
        type            calculated;
        value           uniform 0;
    }
    frontAndBack
    {
        type            empty;
        value           nonuniform List<scalar> 0();
    }
}


// ************************************************************************* //
