/*--------------------------------*- C++ -*----------------------------------*\
| =========                 |                                                 |
| \\      /  F ield         | OpenFOAM: The Open Source CFD Toolbox           |
|  \\    /   O peration     | Version:  2212                                  |
|   \\  /    A nd           | Website:  www.openfoam.com                      |
|    \\/     M anipulation  |                                                 |
\*---------------------------------------------------------------------------*/
FoamFile
{
    version     2.0;
    format      ascii;
    arch        "LSB;label=32;scalar=64";
    class       volScalarField;
    location    "3";
    object      T;
}
// * * * * * * * * * * * * * * * * * * * * * * * * * * * * * * * * * * * * * //

dimensions      [0 0 0 1 0 0 0];

internalField   nonuniform List<scalar> 
400
(
0.222869
0.248791
0.30039
0.375139
0.461092
0.538674
0.59287
0.622084
0.635552
0.643117
0.64847
0.652199
0.654381
0.654378
0.651085
0.642243
0.624171
0.590986
0.543425
0.50474
0.253569
0.285744
0.348758
0.436392
0.527561
0.594664
0.628888
0.644081
0.653288
0.660278
0.666169
0.671524
0.676275
0.679384
0.678611
0.669933
0.647441
0.605439
0.550659
0.509603
0.302868
0.346514
0.425604
0.518943
0.594384
0.634228
0.649985
0.657823
0.662293
0.665405
0.669286
0.675335
0.683771
0.693805
0.702165
0.7027
0.684824
0.636225
0.564328
0.518504
0.353868
0.409785
0.498927
0.582032
0.631285
0.64825
0.650977
0.647925
0.641588
0.636358
0.635178
0.640686
0.653019
0.67251
0.69627
0.718067
0.724616
0.694071
0.608078
0.542879
0.396622
0.461769
0.551969
0.616518
0.64097
0.639586
0.627721
0.609963
0.591599
0.577869
0.571603
0.575489
0.589518
0.615098
0.651228
0.694329
0.733988
0.747284
0.691826
0.591074
0.428701
0.498563
0.583398
0.628001
0.631597
0.614232
0.587882
0.557857
0.531581
0.513082
0.504221
0.506277
0.519468
0.545423
0.585153
0.638302
0.700012
0.755257
0.765244
0.662697
0.451252
0.521715
0.598147
0.625027
0.61213
0.581796
0.544534
0.507694
0.478728
0.459698
0.450999
0.452261
0.463771
0.48712
0.524663
0.578456
0.647576
0.72405
0.78456
0.758884
0.466143
0.534243
0.602042
0.615254
0.590221
0.550389
0.506415
0.467113
0.438646
0.421197
0.413685
0.414652
0.424136
0.443675
0.476432
0.526677
0.597006
0.682897
0.767558
0.813915
0.475315
0.53934
0.599793
0.603715
0.570457
0.524456
0.477129
0.437769
0.410984
0.395563
0.38931
0.390281
0.398231
0.414318
0.441413
0.484929
0.551899
0.643212
0.741351
0.806057
0.480065
0.539175
0.594241
0.593428
0.555765
0.50634
0.45757
0.418749
0.393304
0.379179
0.373535
0.374374
0.381438
0.395602
0.418772
0.455524
0.515578
0.607869
0.720338
0.800702
0.481368
0.535384
0.587174
0.585615
0.546671
0.495936
0.446875
0.408472
0.383456
0.369517
0.363646
0.363978
0.370347
0.383519
0.404541
0.43617
0.488271
0.577059
0.699242
0.797153
0.479829
0.528828
0.578784
0.580125
0.543441
0.493613
0.445053
0.406568
0.380847
0.365978
0.359192
0.35876
0.3645
0.377101
0.39709
0.425319
0.469868
0.553106
0.683208
0.795365
0.475564
0.520162
0.569477
0.576511
0.545086
0.498159
0.450977
0.412418
0.38553
0.369169
0.361075
0.359674
0.364674
0.376556
0.395573
0.421338
0.458927
0.534141
0.669392
0.795344
0.468146
0.509136
0.557836
0.572525
0.549997
0.50916
0.465282
0.427473
0.399467
0.381235
0.371356
0.36853
0.372385
0.383036
0.400473
0.423641
0.455168
0.521892
0.660228
0.79682
0.456991
0.496638
0.544836
0.567067
0.555112
0.522926
0.484754
0.449716
0.422112
0.402911
0.391581
0.387185
0.389354
0.397872
0.412461
0.432174
0.458133
0.515131
0.654117
0.799827
0.442333
0.481336
0.528516
0.557608
0.55808
0.538058
0.509155
0.479853
0.454845
0.435985
0.423605
0.417327
0.416804
0.421769
0.431927
0.44664
0.467183
0.513863
0.652361
0.804507
0.428725
0.468055
0.512721
0.543997
0.553486
0.545523
0.52808
0.507845
0.488927
0.473419
0.462048
0.454935
0.451891
0.452768
0.457911
0.466928
0.483324
0.522431
0.658804
0.812484
0.418395
0.453982
0.497725
0.529778
0.545978
0.548732
0.54286
0.532552
0.520982
0.510039
0.500818
0.493793
0.489466
0.487657
0.489934
0.495339
0.510906
0.545561
0.67428
0.822889
0.356834
0.460943
0.483355
0.504108
0.515661
0.521727
0.523857
0.524398
0.523968
0.524296
0.525183
0.52754
0.531343
0.536277
0.544479
0.553412
0.574059
0.60896
0.713527
0.840788
0.542031
0.601342
0.636219
0.660474
0.67733
0.690434
0.700472
0.709617
0.717208
0.725037
0.731806
0.739303
0.745817
0.753323
0.759847
0.768094
0.776565
0.793263
0.8226
0.879321
)
;

boundaryField
{
    movingWall
    {
        type            fixedValue;
        value           uniform 1;
    }
    fixedWalls
    {
        type            zeroGradient;
    }
    frontAndBack
    {
        type            empty;
    }
}


// ************************************************************************* //
