/*--------------------------------*- C++ -*----------------------------------*\
| =========                 |                                                 |
| \\      /  F ield         | OpenFOAM: The Open Source CFD Toolbox           |
|  \\    /   O peration     | Version:  2212                                  |
|   \\  /    A nd           | Website:  www.openfoam.com                      |
|    \\/     M anipulation  |                                                 |
\*---------------------------------------------------------------------------*/
FoamFile
{
    version     2.0;
    format      ascii;
    arch        "LSB;label=32;scalar=64";
    class       surfaceScalarField;
    location    "2";
    object      phi;
}
// * * * * * * * * * * * * * * * * * * * * * * * * * * * * * * * * * * * * * //

dimensions      [0 3 -1 0 0 0 0];

oriented        oriented;

internalField   nonuniform List<scalar> 
760
(
9.70036e-08
-9.70046e-08
1.6635e-07
-6.93462e-08
1.53606e-07
1.2744e-08
3.70265e-08
1.1658e-07
-2.17933e-07
2.5496e-07
-6.59724e-07
4.41791e-07
-1.316e-06
6.56274e-07
-2.13762e-06
8.21618e-07
-2.97923e-06
8.41619e-07
-3.6468e-06
6.67561e-07
-3.97564e-06
3.28845e-07
-3.8705e-06
-1.0514e-07
-3.25295e-06
-6.17546e-07
-2.21666e-06
-1.03629e-06
-9.62952e-07
-1.25371e-06
1.76788e-07
-1.13974e-06
8.66617e-07
-6.89829e-07
8.67929e-07
-1.31155e-09
3.96518e-07
4.71411e-07
3.96518e-07
3.41301e-08
-1.31135e-07
-7.91616e-08
4.3946e-08
-4.148e-07
3.48383e-07
-1.04959e-06
7.51366e-07
-2.03622e-06
1.24159e-06
-3.34496e-06
1.75053e-06
-4.81536e-06
2.12667e-06
-6.19986e-06
2.20612e-06
-7.27424e-06
1.916e-06
-7.90069e-06
1.29401e-06
-8.01521e-06
4.43363e-07
-7.5764e-06
-5.43952e-07
-6.61095e-06
-1.58299e-06
-5.14786e-06
-2.49938e-06
-3.32095e-06
-3.08062e-06
-1.41158e-06
-3.0491e-06
9.30705e-08
-2.19448e-06
7.32487e-07
-6.40727e-07
4.61917e-07
7.4198e-07
8.58435e-07
-1.70937e-07
3.98029e-08
-6.35601e-07
5.0861e-07
-1.44872e-06
1.1615e-06
-2.66479e-06
1.96744e-06
-4.23964e-06
2.81644e-06
-5.9827e-06
3.4936e-06
-7.6325e-06
3.77646e-06
-8.9895e-06
3.56312e-06
-9.95998e-06
2.88649e-06
-1.0511e-05
1.84502e-06
-1.06006e-05
5.32998e-07
-1.02329e-05
-9.1167e-07
-9.40997e-06
-2.40593e-06
-8.08566e-06
-3.82369e-06
-6.24396e-06
-4.92232e-06
-3.98828e-06
-5.30478e-06
-1.69024e-06
-4.49253e-06
-7.66762e-08
-2.25429e-06
2.7696e-07
3.88344e-07
1.1354e-06
-4.33705e-07
4.73508e-07
-1.31372e-06
1.38863e-06
-2.57648e-06
2.42426e-06
-4.19901e-06
3.58996e-06
-6.02789e-06
4.64532e-06
-7.81973e-06
5.28544e-06
-9.364e-06
5.32074e-06
-1.05625e-05
4.7616e-06
-1.14068e-05
3.73079e-06
-1.19127e-05
2.35097e-06
-1.20648e-05
6.85096e-07
-1.18883e-05
-1.08817e-06
-1.13713e-05
-2.92291e-06
-1.04182e-05
-4.77688e-06
-8.91181e-06
-6.42866e-06
-6.74253e-06
-7.47406e-06
-3.98152e-06
-7.25354e-06
-1.23238e-06
-5.00343e-06
1.16851e-07
-9.60886e-07
1.25225e-06
-6.90283e-07
1.16379e-06
-1.90355e-06
2.60189e-06
-3.44704e-06
3.96776e-06
-5.21663e-06
5.35955e-06
-7.00833e-06
6.43701e-06
-8.60508e-06
6.88219e-06
-9.88181e-06
6.59746e-06
-1.08162e-05
5.69596e-06
-1.14409e-05
4.35553e-06
-1.181e-05
2.72006e-06
-1.19876e-05
8.62676e-07
-1.19876e-05
-1.08811e-06
-1.17998e-05
-3.11072e-06
-1.13443e-05
-5.23239e-06
-1.04477e-05
-7.32525e-06
-8.84458e-06
-9.07723e-06
-6.28433e-06
-9.81379e-06
-2.91417e-06
-8.37359e-06
-2.29205e-07
-3.64585e-06
1.02304e-06
-8.48512e-07
2.0123e-06
-2.23001e-06
3.98339e-06
-3.83722e-06
5.57497e-06
-5.51469e-06
7.03702e-06
-7.06654e-06
7.98886e-06
-8.33435e-06
8.15001e-06
-9.25844e-06
7.52154e-06
-9.86272e-06
6.30025e-06
-1.02129e-05
4.70566e-06
-1.03948e-05
2.90202e-06
-1.05155e-05
9.83372e-07
-1.06056e-05
-9.97986e-07
-1.06573e-05
-3.05902e-06
-1.06461e-05
-5.24363e-06
-1.04218e-05
-7.5495e-06
-9.66531e-06
-9.83376e-06
-7.91482e-06
-1.15643e-05
-4.82381e-06
-1.14646e-05
-1.03851e-06
-7.43115e-06
-1.54696e-08
-8.62933e-07
2.87524e-06
-2.22419e-06
5.34465e-06
-3.70732e-06
7.0581e-06
-5.13986e-06
8.46956e-06
-6.36498e-06
9.21398e-06
-7.28071e-06
9.06574e-06
-7.8735e-06
8.11434e-06
-8.19621e-06
6.62295e-06
-8.33518e-06
4.84464e-06
-8.385e-06
2.95183e-06
-8.43378e-06
1.03215e-06
-8.52514e-06
-9.06625e-07
-8.67179e-06
-2.91238e-06
-8.88956e-06
-5.02586e-06
-9.1187e-06
-7.32035e-06
-9.11608e-06
-9.83637e-06
-8.36544e-06
-1.23149e-05
-6.16166e-06
-1.36684e-05
-2.21424e-06
-1.13786e-05
-2.22971e-06
-7.32319e-07
3.60756e-06
-1.91577e-06
6.5281e-06
-3.15446e-06
8.29679e-06
-4.27841e-06
9.5935e-06
-5.17696e-06
1.01125e-05
-5.79578e-06
9.68457e-06
-6.1516e-06
8.47016e-06
-6.3111e-06
6.78245e-06
-6.36202e-06
4.89556e-06
-6.38484e-06
2.97465e-06
-6.42753e-06
1.07484e-06
-6.51097e-06
-8.23184e-07
-6.65905e-06
-2.76429e-06
-6.91113e-06
-4.77378e-06
-7.28793e-06
-6.94356e-06
-7.69013e-06
-9.43417e-06
-7.68424e-06
-1.23208e-05
-6.45517e-06
-1.48974e-05
-3.33183e-06
-1.45019e-05
-5.56154e-06
-4.93896e-07
4.10145e-06
-1.39583e-06
7.43003e-06
-2.33174e-06
9.23269e-06
-3.14039e-06
1.04022e-05
-3.75176e-06
1.07239e-05
-4.14847e-06
1.00813e-05
-4.36329e-06
8.68499e-06
-4.46108e-06
6.88024e-06
-4.51436e-06
4.94884e-06
-4.57438e-06
3.03467e-06
-4.65646e-06
1.15692e-06
-4.75864e-06
-7.20999e-07
-4.89613e-06
-2.6268e-06
-5.10519e-06
-4.56473e-06
-5.45783e-06
-6.59093e-06
-5.97175e-06
-8.92024e-06
-6.3983e-06
-1.18943e-05
-5.96632e-06
-1.53294e-05
-3.77192e-06
-1.66963e-05
-9.33346e-06
-1.91265e-07
4.29272e-06
-7.568e-07
7.99556e-06
-1.37067e-06
9.84656e-06
-1.88074e-06
1.09122e-05
-2.24701e-06
1.10902e-05
-2.47781e-06
1.03121e-05
-2.60985e-06
8.81703e-06
-2.69354e-06
6.96392e-06
-2.7758e-06
5.0311e-06
-2.88259e-06
3.14145e-06
-3.01402e-06
1.28836e-06
-3.15877e-06
-5.76246e-07
-3.31621e-06
-2.46936e-06
-3.50497e-06
-4.37597e-06
-3.797e-06
-6.2989e-06
-4.29677e-06
-8.42047e-06
-4.93217e-06
-1.12589e-05
-5.05086e-06
-1.52107e-05
-3.49328e-06
-1.82539e-05
-1.28267e-05
1.16739e-07
4.17598e-06
-8.46838e-08
8.19699e-06
-3.86832e-07
1.01487e-05
-6.24859e-07
1.11503e-05
-7.74069e-07
1.12394e-05
-8.57467e-07
1.03955e-05
-9.13224e-07
8.87279e-06
-9.77563e-07
7.02826e-06
-1.07233e-06
5.12587e-06
-1.20337e-06
3.27249e-06
-1.36776e-06
1.45275e-06
-1.55916e-06
-3.84849e-07
-1.77121e-06
-2.25731e-06
-2.0042e-06
-4.14297e-06
-2.30013e-06
-6.00297e-06
-2.78235e-06
-7.93825e-06
-3.5155e-06
-1.05257e-05
-4.00771e-06
-1.47185e-05
-3.00596e-06
-1.92557e-05
-1.58327e-05
3.7086e-07
3.80512e-06
5.23147e-07
8.0447e-06
5.55863e-07
1.0116e-05
5.98314e-07
1.11078e-05
6.67033e-07
1.11707e-05
7.30863e-07
1.03316e-05
7.57969e-07
8.84568e-06
7.32772e-07
7.05346e-06
6.53734e-07
5.20491e-06
5.25675e-07
3.40055e-06
3.50023e-07
1.6284e-06
1.22642e-07
-1.57468e-07
-1.52569e-07
-1.9821e-06
-4.81225e-07
-3.81432e-06
-8.73682e-07
-5.61051e-06
-1.39594e-06
-7.41599e-06
-2.21288e-06
-9.70877e-06
-2.98968e-06
-1.39417e-05
-2.48221e-06
-1.97631e-05
-1.83149e-05
5.54613e-07
3.2505e-06
1.03131e-06
7.568e-06
1.37178e-06
9.77553e-06
1.69534e-06
1.07842e-05
2.00424e-06
1.08618e-05
2.24763e-06
1.00883e-05
2.39534e-06
8.69796e-06
2.44723e-06
7.00157e-06
2.41758e-06
5.23456e-06
2.31745e-06
3.50068e-06
2.14425e-06
1.80161e-06
1.87901e-06
1.07768e-07
1.52736e-06
-1.63045e-06
1.08734e-06
-3.3743e-06
5.58184e-07
-5.08135e-06
-1.25745e-07
-6.73207e-06
-1.02691e-06
-8.80761e-06
-2.01338e-06
-1.29553e-05
-1.97256e-06
-1.98039e-05
-2.02875e-05
6.30105e-07
2.6204e-06
1.37028e-06
6.82782e-06
2.00295e-06
9.14287e-06
2.60889e-06
1.01783e-05
3.17882e-06
1.02918e-05
3.64936e-06
9.61771e-06
3.97788e-06
8.36944e-06
4.16168e-06
6.81777e-06
4.21993e-06
5.17631e-06
4.16907e-06
3.55154e-06
4.00648e-06
1.96419e-06
3.71888e-06
3.95365e-07
3.28784e-06
-1.19941e-06
2.71714e-06
-2.80359e-06
2.01009e-06
-4.3743e-06
1.18289e-06
-5.90487e-06
1.26345e-07
-7.75106e-06
-1.10133e-06
-1.17276e-05
-1.49754e-06
-1.94077e-05
-2.1785e-05
5.7241e-07
2.04799e-06
1.45002e-06
5.95021e-06
2.32264e-06
8.27025e-06
3.20994e-06
9.29099e-06
4.07391e-06
9.42787e-06
4.8293e-06
8.86231e-06
5.4094e-06
7.78935e-06
5.79534e-06
6.43182e-06
5.99928e-06
4.97238e-06
6.03813e-06
3.51268e-06
5.91329e-06
2.08903e-06
5.60906e-06
6.99599e-07
5.10092e-06
-6.91268e-07
4.39721e-06
-2.09988e-06
3.49672e-06
-3.47381e-06
2.44029e-06
-4.84845e-06
1.17643e-06
-6.4872e-06
-2.95286e-07
-1.02559e-05
-1.0195e-06
-1.86835e-05
-2.28045e-05
3.9463e-07
1.65336e-06
1.26273e-06
5.08212e-06
2.35141e-06
7.18157e-06
3.52904e-06
8.11336e-06
4.71147e-06
8.24544e-06
5.78693e-06
7.78685e-06
6.66347e-06
6.91281e-06
7.30165e-06
5.79364e-06
7.69867e-06
4.57536e-06
7.86493e-06
3.34643e-06
7.80382e-06
2.15015e-06
7.51055e-06
9.92864e-07
6.9317e-06
-1.12412e-07
6.09943e-06
-1.26761e-06
5.00094e-06
-2.37533e-06
3.69837e-06
-3.54587e-06
2.24749e-06
-5.03632e-06
6.86228e-07
-8.6946e-06
-2.77169e-07
-1.77201e-05
-2.30817e-05
4.01421e-08
1.61322e-06
6.22976e-07
4.49928e-06
1.79741e-06
6.00713e-06
3.26228e-06
6.64849e-06
4.81144e-06
6.69628e-06
6.26516e-06
6.33314e-06
7.49867e-06
5.6793e-06
8.45542e-06
4.83689e-06
9.11029e-06
3.92049e-06
9.46522e-06
2.9915e-06
9.51345e-06
2.10191e-06
9.25713e-06
1.24918e-06
8.68976e-06
4.54959e-07
7.76565e-06
-3.43502e-07
6.535e-06
-1.14467e-06
5.04878e-06
-2.05965e-06
3.47859e-06
-3.46614e-06
1.96302e-06
-7.17903e-06
5.41535e-07
-1.62986e-05
-2.25401e-05
-4.53677e-07
2.0669e-06
1.50089e-10
4.04546e-06
1.15877e-06
4.84851e-06
2.83679e-06
4.97047e-06
4.69497e-06
4.8381e-06
6.47139e-06
4.55672e-06
8.01217e-06
4.13852e-06
9.25146e-06
3.5976e-06
1.01466e-05
3.0254e-06
1.07009e-05
2.4371e-06
1.0907e-05
1.89585e-06
1.07818e-05
1.37437e-06
1.03217e-05
9.1504e-07
9.53773e-06
4.40494e-07
8.45322e-06
-6.01594e-08
7.11387e-06
-7.20308e-07
5.73454e-06
-2.08681e-06
4.15238e-06
-5.59686e-06
1.92582e-06
-1.40721e-05
-2.06143e-05
-4.11489e-06
6.18178e-06
-3.67062e-06
3.60119e-06
-1.56061e-06
2.7385e-06
8.81496e-07
2.52836e-06
3.295e-06
2.4246e-06
5.58078e-06
2.27094e-06
7.64062e-06
2.07868e-06
9.40619e-06
1.83202e-06
1.08399e-05
1.59169e-06
1.19498e-05
1.32724e-06
1.27386e-05
1.10702e-06
1.32405e-05
8.7251e-07
1.345e-05
7.05518e-07
1.33927e-05
4.97778e-07
1.30183e-05
3.14248e-07
1.2357e-05
-5.89627e-08
1.14638e-05
-1.1936e-06
9.89432e-06
-4.02743e-06
5.54669e-06
-9.72445e-06
-1.50676e-05
6.18178e-06
9.78297e-06
1.25215e-05
1.50498e-05
1.74744e-05
1.97454e-05
2.18241e-05
2.36561e-05
2.52478e-05
2.6575e-05
2.7682e-05
2.85545e-05
2.926e-05
2.97578e-05
3.00721e-05
3.00131e-05
2.88195e-05
2.47921e-05
1.50676e-05
)
;

boundaryField
{
    movingWall
    {
        type            calculated;
        value           uniform 0;
    }
    fixedWalls
    {
        type            calculated;
        value           uniform 0;
    }
    frontAndBack
    {
        type            empty;
        value           nonuniform List<scalar> 0();
    }
}


// ************************************************************************* //
