/*--------------------------------*- C++ -*----------------------------------*\
| =========                 |                                                 |
| \\      /  F ield         | OpenFOAM: The Open Source CFD Toolbox           |
|  \\    /   O peration     | Version:  2212                                  |
|   \\  /    A nd           | Website:  www.openfoam.com                      |
|    \\/     M anipulation  |                                                 |
\*---------------------------------------------------------------------------*/
FoamFile
{
    version     2.0;
    format      ascii;
    arch        "LSB;label=32;scalar=64";
    class       volScalarField;
    location    "2";
    object      T;
}
// * * * * * * * * * * * * * * * * * * * * * * * * * * * * * * * * * * * * * //

dimensions      [0 0 0 1 0 0 0];

internalField   nonuniform List<scalar> 
400
(
0.0312323
0.0462731
0.0786757
0.131393
0.203679
0.286577
0.363782
0.420235
0.452396
0.468922
0.478883
0.485209
0.488134
0.486566
0.478917
0.461534
0.428711
0.372364
0.299007
0.244551
0.0443291
0.0668123
0.114032
0.18697
0.278443
0.368219
0.433894
0.471144
0.492308
0.50736
0.519218
0.528621
0.535428
0.53798
0.533376
0.515797
0.476688
0.40706
0.31971
0.259212
0.0684507
0.105183
0.177015
0.273386
0.371795
0.446091
0.488282
0.511063
0.52634
0.537712
0.547455
0.557312
0.567813
0.577921
0.583976
0.577874
0.545543
0.468725
0.356881
0.286333
0.0989343
0.153455
0.249605
0.356447
0.442206
0.491331
0.512512
0.521249
0.524024
0.52463
0.527273
0.534696
0.548253
0.568041
0.591732
0.611702
0.6115
0.561421
0.43526
0.337669
0.130398
0.201644
0.314103
0.416691
0.479748
0.503279
0.504571
0.496545
0.484689
0.474863
0.470887
0.475221
0.489137
0.513998
0.55031
0.594645
0.635183
0.642447
0.559527
0.419176
0.158417
0.241979
0.361322
0.450809
0.489469
0.490583
0.474667
0.453036
0.432279
0.417881
0.411221
0.413072
0.424147
0.446716
0.483826
0.537122
0.60275
0.662585
0.66519
0.525364
0.180711
0.271184
0.390525
0.464517
0.48208
0.466188
0.438682
0.41064
0.388911
0.376382
0.371362
0.372523
0.37998
0.396451
0.42656
0.475656
0.54618
0.630713
0.698552
0.654442
0.196722
0.289278
0.405034
0.465584
0.46755
0.440494
0.407242
0.37898
0.361356
0.353816
0.351932
0.352992
0.356962
0.366676
0.387377
0.426862
0.492813
0.584564
0.682606
0.734061
0.206875
0.297918
0.40904
0.460318
0.452341
0.418997
0.384158
0.358889
0.346806
0.344194
0.344762
0.345444
0.346715
0.351317
0.363603
0.391543
0.447847
0.540398
0.652134
0.731161
0.211814
0.298906
0.405548
0.452315
0.43976
0.403731
0.369274
0.347346
0.339622
0.34014
0.341676
0.341459
0.340869
0.34291
0.350573
0.369314
0.413545
0.502136
0.627417
0.724332
0.212061
0.293661
0.396625
0.443513
0.430901
0.394569
0.360891
0.340996
0.335367
0.337035
0.338545
0.337351
0.335413
0.336228
0.342197
0.35565
0.388665
0.468909
0.602997
0.721298
0.208168
0.28354
0.382912
0.433466
0.425252
0.390972
0.357948
0.338146
0.332133
0.333295
0.334492
0.332998
0.330554
0.330869
0.336543
0.347784
0.372166
0.443052
0.583755
0.719127
0.200079
0.269456
0.365297
0.422012
0.422006
0.392152
0.359842
0.338489
0.329959
0.329119
0.329688
0.328607
0.326725
0.327281
0.333088
0.343614
0.361499
0.421874
0.567266
0.719648
0.187304
0.25151
0.342734
0.406245
0.418157
0.396601
0.366896
0.343812
0.331407
0.326986
0.325882
0.325107
0.3245
0.326155
0.332387
0.34264
0.356128
0.406743
0.555327
0.721454
0.170217
0.231177
0.317653
0.386539
0.411447
0.401448
0.377523
0.354667
0.339041
0.33066
0.32698
0.325717
0.326089
0.328879
0.335195
0.34461
0.354959
0.396173
0.546857
0.725394
0.150952
0.20812
0.288314
0.359548
0.397284
0.402421
0.389391
0.37137
0.355719
0.344857
0.338475
0.335549
0.335243
0.337507
0.342413
0.349536
0.357592
0.390367
0.54291
0.731008
0.135412
0.189756
0.262713
0.329998
0.373779
0.391779
0.391962
0.383673
0.373324
0.36424
0.357522
0.35326
0.351218
0.351083
0.353191
0.357056
0.364677
0.393022
0.547998
0.740905
0.126622
0.172205
0.238886
0.299807
0.344174
0.370071
0.381581
0.383697
0.381038
0.376402
0.371701
0.367617
0.365123
0.363765
0.365578
0.369066
0.381403
0.412384
0.564742
0.753999
0.0271463
0.182092
0.22362
0.264827
0.294955
0.317247
0.332787
0.344193
0.352428
0.359938
0.366737
0.374184
0.382482
0.391073
0.403229
0.414607
0.439441
0.480681
0.610593
0.776637
0.305845
0.392656
0.4464
0.485707
0.515014
0.538952
0.558229
0.575666
0.590349
0.604774
0.617221
0.630214
0.64145
0.65369
0.664261
0.676812
0.68871
0.711711
0.749844
0.827466
)
;

boundaryField
{
    movingWall
    {
        type            fixedValue;
        value           uniform 1;
    }
    fixedWalls
    {
        type            zeroGradient;
    }
    frontAndBack
    {
        type            empty;
    }
}


// ************************************************************************* //
