/*--------------------------------*- C++ -*----------------------------------*\
| =========                 |                                                 |
| \\      /  F ield         | OpenFOAM: The Open Source CFD Toolbox           |
|  \\    /   O peration     | Version:  2212                                  |
|   \\  /    A nd           | Website:  www.openfoam.com                      |
|    \\/     M anipulation  |                                                 |
\*---------------------------------------------------------------------------*/
FoamFile
{
    version     2.0;
    format      ascii;
    arch        "LSB;label=32;scalar=64";
    class       volScalarField;
    location    "8.8";
    object      p;
}
// * * * * * * * * * * * * * * * * * * * * * * * * * * * * * * * * * * * * * //

dimensions      [0 2 -2 0 0 0 0];

internalField   nonuniform List<scalar> 
400
(
6.40549e-07
-0.000150331
-0.000534378
-0.00107154
-0.00173222
-0.00249363
-0.0031847
-0.00359724
-0.00356501
-0.00293377
-0.00154828
0.000619556
0.0032497
0.00551428
0.00653422
0.00592373
0.00400326
0.002151
0.00111201
0.00104293
0.000116553
-5.78494e-05
-0.000376766
-0.000763916
-0.00124381
-0.00188789
-0.00270593
-0.00354316
-0.00407958
-0.003938
-0.00284607
-0.000824593
0.00168959
0.00396122
0.00512526
0.00474402
0.00310428
0.00137615
0.000594558
0.000685548
0.000536633
0.000265195
-7.70645e-05
-0.00055939
-0.00134703
-0.0025803
-0.00421867
-0.00598312
-0.00740173
-0.00794298
-0.00726335
-0.00546126
-0.00289102
-0.000194028
0.00179251
0.00242877
0.00171011
0.000503525
-0.000394655
-0.000391433
0.00115206
0.00074141
0.000192087
-0.000774545
-0.00245074
-0.0049372
-0.00799415
-0.0111191
-0.0137016
-0.015175
-0.0152048
-0.013838
-0.011292
-0.00802766
-0.00475097
-0.0022085
-0.000869159
-0.000704973
-0.00128756
-0.00191691
0.00158329
0.000973766
-2.27132e-05
-0.00192373
-0.00500595
-0.00917882
-0.0139118
-0.0184771
-0.0222129
-0.0246492
-0.0255247
-0.0247191
-0.0223601
-0.0187406
-0.0143022
-0.00965377
-0.00559054
-0.00294757
-0.00219204
-0.00401664
0.00129323
0.000445006
-0.00119714
-0.00430376
-0.00900373
-0.0148784
-0.0210695
-0.026711
-0.0311861
-0.0341728
-0.0355393
-0.0351835
-0.0331914
-0.0297139
-0.0248954
-0.0189579
-0.012503
-0.00694669
-0.00439954
-0.00652267
-4.84336e-05
-0.00114752
-0.00349905
-0.00779575
-0.0139304
-0.021111
-0.0282314
-0.0344016
-0.0391214
-0.042224
-0.0437113
-0.0436021
-0.0419649
-0.0388719
-0.0343051
-0.0281526
-0.0205356
-0.0127005
-0.00785316
-0.00774659
-0.00245042
-0.00374191
-0.00669781
-0.0119117
-0.0190368
-0.0269772
-0.0344978
-0.0407712
-0.0454415
-0.0484666
-0.0499288
-0.0499202
-0.0485202
-0.0457793
-0.0416547
-0.0359205
-0.028321
-0.0193678
-0.0118202
-0.00797921
-0.00553725
-0.00691459
-0.0102624
-0.0160195
-0.0236542
-0.0318837
-0.0394436
-0.0456033
-0.0501262
-0.053045
-0.0544735
-0.0545137
-0.0532402
-0.0507146
-0.0469526
-0.0418044
-0.0348619
-0.0259434
-0.0167063
-0.00999278
-0.00873297
-0.0100848
-0.0135959
-0.0195391
-0.0272815
-0.0354802
-0.0429031
-0.0488987
-0.0532966
-0.0561532
-0.0575763
-0.0576476
-0.05643
-0.0539983
-0.0504402
-0.0457515
-0.0396271
-0.0315188
-0.0223176
-0.0143372
-0.011503
-0.0127565
-0.0162171
-0.0220507
-0.0296016
-0.037581
-0.0448166
-0.0506873
-0.0550288
-0.0578787
-0.0593202
-0.0594117
-0.0582033
-0.0557749
-0.0522749
-0.0478426
-0.0424235
-0.0353769
-0.0271937
-0.0191759
-0.013548
-0.014617
-0.0178534
-0.0233116
-0.0304252
-0.0380549
-0.0451076
-0.0509373
-0.0553146
-0.0582245
-0.0597114
-0.0598138
-0.0585726
-0.0560688
-0.0525034
-0.0481283
-0.0431992
-0.0370506
-0.0300275
-0.0224135
-0.0148359
-0.0155662
-0.0183494
-0.0232064
-0.0296878
-0.0368711
-0.0437547
-0.0496281
-0.0541408
-0.0571854
-0.0587537
-0.0588608
-0.0575423
-0.054902
-0.0511655
-0.0466466
-0.0419585
-0.036295
-0.0302221
-0.0228925
-0.0154663
-0.0157205
-0.017775
-0.0217429
-0.0273847
-0.0340246
-0.0407415
-0.0467294
-0.0514799
-0.0547538
-0.0564669
-0.056608
-0.0551872
-0.0523403
-0.0483357
-0.0435738
-0.038725
-0.0331375
-0.0280965
-0.0202768
-0.015573
-0.0152968
-0.0163362
-0.0190851
-0.0236491
-0.0296284
-0.036164
-0.0423262
-0.0474163
-0.0510267
-0.0529667
-0.0531701
-0.0516784
-0.0485806
-0.0442181
-0.0390478
-0.0337781
-0.0280695
-0.0242299
-0.014384
-0.0152755
-0.0145489
-0.0142594
-0.0154242
-0.0186821
-0.0238905
-0.0302256
-0.0366071
-0.0421285
-0.0461905
-0.048478
-0.0488551
-0.0473427
-0.0440122
-0.0392425
-0.033515
-0.0276397
-0.0216293
-0.0180543
-0.00383388
-0.014661
-0.0136173
-0.0117061
-0.0110803
-0.0129523
-0.0173779
-0.0235301
-0.0301648
-0.036186
-0.0408029
-0.0435694
-0.0442524
-0.0428422
-0.0393697
-0.0341809
-0.0276879
-0.0206829
-0.0132785
-0.00678909
0.0160501
-0.0145825
-0.0126565
-0.00864827
-0.00623478
-0.00691005
-0.010745
-0.0168157
-0.0237362
-0.0302932
-0.0355326
-0.0388962
-0.0400276
-0.038871
-0.035443
-0.0298931
-0.0222757
-0.012875
-0.000692592
0.0166897
0.0570595
-0.0117942
-0.0118304
-0.00572651
-0.00177601
-0.00176597
-0.00540504
-0.0115743
-0.0188124
-0.0258715
-0.0316821
-0.0356561
-0.0373556
-0.0366796
-0.0333512
-0.0272223
-0.0175423
-0.00315163
0.0204848
0.0606983
0.129817
-0.0295163
-0.0106297
-0.000609625
0.00307946
0.00244685
-0.00155779
-0.00799905
-0.0155514
-0.0229726
-0.0291689
-0.0335261
-0.035582
-0.0351958
-0.0319518
-0.0252257
-0.0128605
0.00941954
0.0511665
0.122873
0.226072
)
;

boundaryField
{
    movingWall
    {
        type            zeroGradient;
    }
    fixedWalls
    {
        type            zeroGradient;
    }
    frontAndBack
    {
        type            empty;
    }
}


// ************************************************************************* //
