/*--------------------------------*- C++ -*----------------------------------*\
| =========                 |                                                 |
| \\      /  F ield         | OpenFOAM: The Open Source CFD Toolbox           |
|  \\    /   O peration     | Version:  2212                                  |
|   \\  /    A nd           | Website:  www.openfoam.com                      |
|    \\/     M anipulation  |                                                 |
\*---------------------------------------------------------------------------*/
FoamFile
{
    version     2.0;
    format      ascii;
    arch        "LSB;label=32;scalar=64";
    class       volVectorField;
    location    "8.8";
    object      U;
}
// * * * * * * * * * * * * * * * * * * * * * * * * * * * * * * * * * * * * * //

dimensions      [0 1 -1 0 0 0 0];

internalField   nonuniform List<vector> 
400
(
(0.00168152 -0.00168371 0)
(0.00483797 -0.0018921 0)
(0.00659015 -0.00120064 0)
(0.00567373 -0.000575062 0)
(0.00157122 0.000184048 0)
(-0.00682975 0.00173937 0)
(-0.020608 0.00478609 0)
(-0.0395399 0.00873548 0)
(-0.060809 0.011292 0)
(-0.079135 0.0105122 0)
(-0.0898105 0.00677456 0)
(-0.0904619 0.00166932 0)
(-0.0802259 -0.00361594 0)
(-0.0599951 -0.00827437 0)
(-0.0335234 -0.0108467 0)
(-0.00529592 -0.00979512 0)
(0.0167206 -0.00477352 0)
(0.0244683 0.0027763 0)
(0.0161777 0.00647176 0)
(0.00431638 0.00471691 0)
(0.00172012 -0.00506466 0)
(0.00316166 -0.00403181 0)
(-0.000418398 0.000588053 0)
(-0.0113309 0.00644162 0)
(-0.0314261 0.0140496 0)
(-0.0611484 0.0237728 0)
(-0.0968435 0.03306 0)
(-0.131455 0.037091 0)
(-0.158968 0.0335164 0)
(-0.176099 0.0234011 0)
(-0.181447 0.00910989 0)
(-0.175076 -0.00698881 0)
(-0.157559 -0.0231726 0)
(-0.12965 -0.0369125 0)
(-0.093615 -0.0445645 0)
(-0.052196 -0.0418384 0)
(-0.0114023 -0.0263349 0)
(0.0168873 -0.00128057 0)
(0.0178709 0.0162225 0)
(0.005542 0.0148192 0)
(-0.000239943 -0.00577926 0)
(-0.00538191 0.000802807 0)
(-0.0196101 0.0142995 0)
(-0.0445039 0.0312352 0)
(-0.0803396 0.0494438 0)
(-0.122202 0.0643182 0)
(-0.162346 0.0705441 0)
(-0.195268 0.0660268 0)
(-0.21886 0.0521899 0)
(-0.232528 0.0315338 0)
(-0.236284 0.00641744 0)
(-0.230799 -0.0211114 0)
(-0.216386 -0.0488706 0)
(-0.192541 -0.0732245 0)
(-0.159004 -0.0890248 0)
(-0.115741 -0.0892289 0)
(-0.0645634 -0.0670296 0)
(-0.0138226 -0.0226668 0)
(0.00948064 0.0179163 0)
(0.00415542 0.0235789 0)
(-0.00347206 0.000454702 0)
(-0.017515 0.0172414 0)
(-0.0435162 0.0415005 0)
(-0.0796816 0.0681934 0)
(-0.122957 0.0911587 0)
(-0.16585 0.103846 0)
(-0.201921 0.102901 0)
(-0.229244 0.0896697 0)
(-0.248083 0.067325 0)
(-0.259037 0.0385797 0)
(-0.262945 0.00531881 0)
(-0.260613 -0.0311145 0)
(-0.25198 -0.0684518 0)
(-0.236003 -0.10374 0)
(-0.210691 -0.131488 0)
(-0.173346 -0.142889 0)
(-0.121402 -0.125765 0)
(-0.0568448 -0.0708546 0)
(-0.000987721 0.00356367 0)
(0.00474227 0.0282392 0)
(-0.00666274 0.0147842 0)
(-0.0287299 0.0441119 0)
(-0.06329 0.077095 0)
(-0.104462 0.10892 0)
(-0.147281 0.131209 0)
(-0.184581 0.138197 0)
(-0.212919 0.129504 0)
(-0.232703 0.108746 0)
(-0.245219 0.0797971 0)
(-0.252195 0.0454478 0)
(-0.255314 0.00724198 0)
(-0.255497 -0.0339947 0)
(-0.252518 -0.0770794 0)
(-0.245837 -0.120683 0)
(-0.232642 -0.16082 0)
(-0.208321 -0.189031 0)
(-0.16682 -0.189982 0)
(-0.103449 -0.142881 0)
(-0.0221829 -0.0388559 0)
(0.00738158 0.0270996 0)
(-0.00851087 0.0348748 0)
(-0.0351776 0.076641 0)
(-0.0730938 0.114956 0)
(-0.113266 0.147706 0)
(-0.15053 0.166038 0)
(-0.179393 0.165975 0)
(-0.198918 0.149764 0)
(-0.210664 0.122506 0)
(-0.216613 0.0885452 0)
(-0.219244 0.0508706 0)
(-0.220512 0.010957 0)
(-0.221414 -0.0307542 0)
(-0.222146 -0.0747159 0)
(-0.222821 -0.121286 0)
(-0.22125 -0.169232 0)
(-0.212349 -0.213066 0)
(-0.188031 -0.238595 0)
(-0.139691 -0.218547 0)
(-0.0628502 -0.118946 0)
(0.00584845 0.0142021 0)
(-0.00829304 0.0570075 0)
(-0.035343 0.110015 0)
(-0.0718394 0.150502 0)
(-0.107081 0.181194 0)
(-0.136718 0.193888 0)
(-0.157124 0.186493 0)
(-0.169035 0.163329 0)
(-0.174573 0.130545 0)
(-0.176145 0.0929007 0)
(-0.176243 0.0534093 0)
(-0.176356 0.013316 0)
(-0.177156 -0.0273062 0)
(-0.17919 -0.0695709 0)
(-0.183 -0.114722 0)
(-0.18795 -0.163855 0)
(-0.190423 -0.215825 0)
(-0.182536 -0.261678 0)
(-0.154287 -0.275198 0)
(-0.0994057 -0.205922 0)
(-0.00890836 -0.0146264 0)
(-0.00613597 0.0776043 0)
(-0.0297947 0.140568 0)
(-0.0614318 0.18124 0)
(-0.0899042 0.208356 0)
(-0.111915 0.214946 0)
(-0.125453 0.200619 0)
(-0.132142 0.171387 0)
(-0.134293 0.134224 0)
(-0.134354 0.0941103 0)
(-0.134253 0.0537488 0)
(-0.134659 0.0138643 0)
(-0.135752 -0.025884 0)
(-0.137985 -0.066476 0)
(-0.142051 -0.109091 0)
(-0.148566 -0.155679 0)
(-0.156233 -0.208596 0)
(-0.159091 -0.265924 0)
(-0.146763 -0.308161 0)
(-0.112264 -0.277233 0)
(-0.0309676 -0.0753428 0)
(-0.00273033 0.0936247 0)
(-0.0204211 0.165661 0)
(-0.0451586 0.205634 0)
(-0.0663559 0.228626 0)
(-0.081626 0.229588 0)
(-0.0901174 0.209601 0)
(-0.0937495 0.175849 0)
(-0.0946608 0.135812 0)
(-0.0949371 0.0944671 0)
(-0.0957315 0.0540281 0)
(-0.0970807 0.0145941 0)
(-0.0988904 -0.02458 0)
(-0.101327 -0.0642255 0)
(-0.104895 -0.104993 0)
(-0.110743 -0.148473 0)
(-0.119607 -0.198595 0)
(-0.128362 -0.259827 0)
(-0.126536 -0.323492 0)
(-0.107489 -0.334797 0)
(-0.0373527 -0.163454 0)
(0.00121944 0.102772 0)
(-0.00894471 0.183505 0)
(-0.0256491 0.22319 0)
(-0.0396496 0.242812 0)
(-0.0491301 0.239577 0)
(-0.0540034 0.215603 0)
(-0.0559727 0.178847 0)
(-0.0566848 0.13715 0)
(-0.0576447 0.0953965 0)
(-0.059386 0.0552662 0)
(-0.0616784 0.0163093 0)
(-0.0643785 -0.0224868 0)
(-0.0674774 -0.0617293 0)
(-0.0711534 -0.101618 0)
(-0.0763388 -0.142822 0)
(-0.0846033 -0.188967 0)
(-0.0960732 -0.248392 0)
(-0.100658 -0.324359 0)
(-0.0951792 -0.372264 0)
(-0.0309251 -0.242607 0)
(0.00511868 0.103938 0)
(0.0029576 0.193106 0)
(-0.00539048 0.233686 0)
(-0.0125079 0.250845 0)
(-0.0168991 0.24476 0)
(-0.0187861 0.218543 0)
(-0.0194741 0.180481 0)
(-0.0200019 0.138405 0)
(-0.0212996 0.0969501 0)
(-0.0235352 0.0574156 0)
(-0.0264238 0.0190802 0)
(-0.0299069 -0.0191624 0)
(-0.0340011 -0.057968 0)
(-0.0386449 -0.0973884 0)
(-0.0443838 -0.137342 0)
(-0.0524451 -0.180212 0)
(-0.0657636 -0.23569 0)
(-0.0742246 -0.318136 0)
(-0.0812018 -0.396769 0)
(-0.022943 -0.307167 0)
(0.0084579 0.097464 0)
(0.0142215 0.194099 0)
(0.0141046 0.237209 0)
(0.0137103 0.253626 0)
(0.0143333 0.246546 0)
(0.0155305 0.219838 0)
(0.0163904 0.181789 0)
(0.0164443 0.140075 0)
(0.0153065 0.0991371 0)
(0.0130293 0.0602149 0)
(0.00986142 0.0226236 0)
(0.00575342 -0.0147474 0)
(0.000562244 -0.0526838 0)
(-0.00556279 -0.0912824 0)
(-0.01303 -0.130172 0)
(-0.0219771 -0.170352 0)
(-0.0377182 -0.220733 0)
(-0.0487307 -0.304497 0)
(-0.067905 -0.408513 0)
(-0.0144594 -0.360049 0)
(0.0103292 0.084485 0)
(0.0234196 0.186503 0)
(0.0310837 0.233332 0)
(0.0370137 0.250171 0)
(0.0426759 0.243332 0)
(0.0476309 0.217547 0)
(0.0510683 0.180784 0)
(0.052744 0.140378 0)
(0.0526122 0.100618 0)
(0.0508825 0.0628127 0)
(0.0477725 0.0264537 0)
(0.0431647 -0.00951635 0)
(0.0368916 -0.0459895 0)
(0.0290769 -0.0831212 0)
(0.0189228 -0.120544 0)
(0.00759776 -0.158485 0)
(-0.0118167 -0.204445 0)
(-0.0242399 -0.286499 0)
(-0.0558445 -0.41102 0)
(-0.0061377 -0.401897 0)
(0.0098778 0.0672342 0)
(0.0290305 0.170694 0)
(0.0443572 0.222241 0)
(0.0569004 0.241337 0)
(0.0681949 0.23641 0)
(0.0778828 0.213048 0)
(0.0851047 0.178755 0)
(0.0895598 0.140414 0)
(0.0913246 0.102255 0)
(0.0906992 0.0658215 0)
(0.0880134 0.0309761 0)
(0.0829642 -0.00329871 0)
(0.0754501 -0.0375375 0)
(0.0657585 -0.072316 0)
(0.0525076 -0.107439 0)
(0.0375748 -0.142786 0)
(0.0131332 -0.184274 0)
(8.04368e-05 -0.26326 0)
(-0.0447976 -0.406721 0)
(0.00276556 -0.436274 0)
(0.00692956 0.0493969 0)
(0.0293652 0.14897 0)
(0.051115 0.203651 0)
(0.069995 0.22457 0)
(0.0874726 0.221713 0)
(0.103169 0.201554 0)
(0.11584 0.17096 0)
(0.124806 0.136069 0)
(0.129978 0.100873 0)
(0.131598 0.067046 0)
(0.129934 0.0348406 0)
(0.12501 0.00343176 0)
(0.116379 -0.0274617 0)
(0.104647 -0.0586981 0)
(0.0875535 -0.0903199 0)
(0.0683637 -0.122937 0)
(0.038299 -0.160858 0)
(0.0238607 -0.237161 0)
(-0.0344396 -0.398968 0)
(0.013475 -0.464433 0)
(0.00238698 0.0346272 0)
(0.0236413 0.123902 0)
(0.0509604 0.179956 0)
(0.0766947 0.202956 0)
(0.101362 0.202645 0)
(0.124248 0.186244 0)
(0.143704 0.160187 0)
(0.158513 0.129756 0)
(0.16826 0.0985636 0)
(0.17315 0.0682986 0)
(0.173125 0.0395581 0)
(0.168897 0.0119363 0)
(0.15906 -0.0149094 0)
(0.145326 -0.041713 0)
(0.124023 -0.0687545 0)
(0.100481 -0.0975559 0)
(0.0646252 -0.132712 0)
(0.0470081 -0.207459 0)
(-0.0227044 -0.387085 0)
(0.0285329 -0.48556 0)
(-0.00342606 0.0286148 0)
(0.0100721 0.101502 0)
(0.0371131 0.1487 0)
(0.0689806 0.169467 0)
(0.101878 0.170688 0)
(0.1336 0.158397 0)
(0.161601 0.137961 0)
(0.184148 0.113558 0)
(0.200199 0.0882701 0)
(0.210124 0.0636285 0)
(0.213049 0.0403783 0)
(0.210795 0.0184017 0)
(0.20053 -0.00267615 0)
(0.185897 -0.0233124 0)
(0.161081 -0.043978 0)
(0.134462 -0.0677398 0)
(0.0929284 -0.101691 0)
(0.0698764 -0.180013 0)
(-0.00436744 -0.370053 0)
(0.0521613 -0.491641 0)
(-0.0140108 0.0185186 0)
(-0.00751585 0.0881764 0)
(0.0192196 0.124195 0)
(0.0564548 0.137321 0)
(0.0976112 0.136913 0)
(0.137997 0.127731 0)
(0.174252 0.113074 0)
(0.2041 0.0952945 0)
(0.225997 0.0768216 0)
(0.241092 0.0586724 0)
(0.247126 0.0418 0)
(0.248042 0.0261062 0)
(0.238703 0.0117431 0)
(0.226885 -0.00204779 0)
(0.201885 -0.0160876 0)
(0.1779 -0.0350238 0)
(0.133552 -0.0678022 0)
(0.107839 -0.146001 0)
(0.0374719 -0.326119 0)
(0.0923673 -0.455871 0)
(-0.106019 0.0824189 0)
(-0.0777593 0.0689917 0)
(-0.048568 0.0733699 0)
(0.00378059 0.0778894 0)
(0.0572964 0.0782231 0)
(0.110029 0.0739588 0)
(0.157199 0.0666236 0)
(0.199563 0.0572189 0)
(0.231675 0.047543 0)
(0.259827 0.0378866 0)
(0.275555 0.0292195 0)
(0.29071 0.0212336 0)
(0.291063 0.0144764 0)
(0.295173 0.00809325 0)
(0.278871 0.00112539 0)
(0.271656 -0.0100122 0)
(0.232345 -0.0355673 0)
(0.218142 -0.0954188 0)
(0.150208 -0.229723 0)
(0.170672 -0.341456 0)
(0.129969 0.103745 0)
(0.158321 0.0752287 0)
(0.212166 0.0532286 0)
(0.270674 0.0416235 0)
(0.32325 0.0359136 0)
(0.375692 0.031949 0)
(0.420287 0.0289167 0)
(0.465605 0.0255811 0)
(0.498701 0.0229031 0)
(0.533951 0.0197107 0)
(0.553389 0.0175479 0)
(0.579199 0.01461 0)
(0.585337 0.0131653 0)
(0.603676 0.0103464 0)
(0.595097 0.00938406 0)
(0.603599 0.00500027 0)
(0.567791 8.95926e-05 0)
(0.547614 -0.0183157 0)
(0.435692 -0.0504144 0)
(0.336754 -0.101386 0)
)
;

boundaryField
{
    movingWall
    {
        type            fixedValue;
        value           uniform (1 0 0);
    }
    fixedWalls
    {
        type            noSlip;
    }
    frontAndBack
    {
        type            empty;
    }
}


// ************************************************************************* //
