/*--------------------------------*- C++ -*----------------------------------*\
| =========                 |                                                 |
| \\      /  F ield         | OpenFOAM: The Open Source CFD Toolbox           |
|  \\    /   O peration     | Version:  2212                                  |
|   \\  /    A nd           | Website:  www.openfoam.com                      |
|    \\/     M anipulation  |                                                 |
\*---------------------------------------------------------------------------*/
FoamFile
{
    version     2.0;
    format      ascii;
    arch        "LSB;label=32;scalar=64";
    class       volScalarField;
    location    "12.3";
    object      T;
}
// * * * * * * * * * * * * * * * * * * * * * * * * * * * * * * * * * * * * * //

dimensions      [0 0 0 1 0 0 0];

internalField   nonuniform List<scalar> 
400
(
0.933803
0.935257
0.938215
0.942586
0.947671
0.952289
0.955576
0.957469
0.95848
0.959163
0.959782
0.960419
0.961099
0.961798
0.962406
0.962745
0.962521
0.961419
0.95961
0.958127
0.935674
0.937456
0.941027
0.946131
0.951514
0.95546
0.957378
0.958048
0.958283
0.95846
0.958808
0.959465
0.960475
0.96178
0.963116
0.964075
0.964034
0.962522
0.960158
0.958453
0.938598
0.940987
0.945416
0.950743
0.954924
0.956699
0.956664
0.955873
0.954875
0.95412
0.953996
0.954775
0.956468
0.959022
0.961973
0.96464
0.965883
0.964564
0.961166
0.959057
0.941461
0.944474
0.949299
0.953621
0.955486
0.954745
0.952533
0.949709
0.946913
0.944846
0.944039
0.94494
0.947437
0.951585
0.956817
0.962314
0.966561
0.967557
0.963781
0.96048
0.943666
0.947041
0.951499
0.953946
0.953115
0.949696
0.944907
0.939623
0.93479
0.931264
0.929671
0.930533
0.93371
0.93932
0.946854
0.955503
0.963743
0.969211
0.968496
0.963132
0.945124
0.94849
0.951971
0.95215
0.948554
0.942386
0.934909
0.927226
0.920528
0.915721
0.913438
0.914094
0.917679
0.924257
0.933502
0.944724
0.956597
0.966916
0.972021
0.967019
0.945946
0.948968
0.951124
0.94902
0.942861
0.934154
0.924286
0.914644
0.906558
0.900906
0.89821
0.898685
0.902397
0.909374
0.919497
0.932348
0.94686
0.961007
0.971534
0.97259
0.946307
0.948822
0.949655
0.945558
0.937203
0.926334
0.914553
0.903501
0.894547
0.888471
0.885618
0.88602
0.889689
0.896623
0.906856
0.920356
0.936551
0.953628
0.968225
0.975575
0.946356
0.948324
0.947997
0.942317
0.932266
0.919785
0.90667
0.894716
0.885268
0.878996
0.87608
0.876452
0.880041
0.886769
0.896659
0.909963
0.926849
0.946128
0.963975
0.97425
0.946207
0.947719
0.946602
0.939938
0.928796
0.91525
0.901264
0.888729
0.878959
0.872518
0.869488
0.869775
0.873276
0.879829
0.889306
0.901954
0.918594
0.939194
0.960136
0.973249
0.945928
0.947118
0.945561
0.938435
0.926773
0.91274
0.898391
0.885611
0.875651
0.869014
0.865764
0.86584
0.869159
0.875525
0.884637
0.896501
0.912242
0.933188
0.956565
0.97261
0.945556
0.946588
0.945013
0.938069
0.926563
0.912633
0.898357
0.885572
0.875486
0.868613
0.865058
0.864797
0.867773
0.873796
0.882471
0.893497
0.907929
0.928444
0.953708
0.972262
0.945084
0.9461
0.944785
0.938486
0.927695
0.914428
0.900719
0.888308
0.878353
0.871389
0.86757
0.866903
0.869367
0.874789
0.882767
0.892827
0.905667
0.92497
0.951452
0.972224
0.944483
0.945621
0.944854
0.939711
0.930281
0.918308
0.905694
0.894053
0.884486
0.877564
0.873512
0.872338
0.87409
0.878597
0.885512
0.894294
0.905344
0.922951
0.949996
0.972438
0.943693
0.94503
0.944802
0.940916
0.933182
0.922998
0.91204
0.901735
0.893066
0.886581
0.882544
0.880954
0.881891
0.885223
0.890677
0.897885
0.907025
0.922364
0.949237
0.972911
0.942755
0.944348
0.944819
0.942392
0.93672
0.928792
0.91997
0.911441
0.90405
0.898283
0.894404
0.892454
0.892454
0.894375
0.898051
0.903309
0.91038
0.922986
0.949212
0.973656
0.941824
0.943388
0.944073
0.942694
0.938915
0.933377
0.927033
0.920753
0.915152
0.910613
0.907303
0.905319
0.9046
0.905218
0.907166
0.910417
0.915628
0.925839
0.950743
0.974923
0.941165
0.943031
0.944244
0.943746
0.941649
0.938334
0.934354
0.930242
0.926387
0.92308
0.920425
0.918548
0.917433
0.917153
0.917886
0.919559
0.923397
0.931253
0.953612
0.976521
0.932372
0.941133
0.941172
0.940931
0.939808
0.938286
0.936533
0.934897
0.933393
0.932283
0.931471
0.931107
0.931135
0.931526
0.932577
0.933921
0.93736
0.943347
0.960318
0.97926
0.952489
0.958243
0.961331
0.963191
0.964195
0.964831
0.965171
0.965515
0.96576
0.966134
0.966465
0.966958
0.967416
0.968035
0.968631
0.969455
0.970504
0.972713
0.977109
0.984864
)
;

boundaryField
{
    movingWall
    {
        type            fixedValue;
        value           uniform 1;
    }
    fixedWalls
    {
        type            zeroGradient;
    }
    frontAndBack
    {
        type            empty;
    }
}


// ************************************************************************* //
