/*--------------------------------*- C++ -*----------------------------------*\
| =========                 |                                                 |
| \\      /  F ield         | OpenFOAM: The Open Source CFD Toolbox           |
|  \\    /   O peration     | Version:  2212                                  |
|   \\  /    A nd           | Website:  www.openfoam.com                      |
|    \\/     M anipulation  |                                                 |
\*---------------------------------------------------------------------------*/
FoamFile
{
    version     2.0;
    format      ascii;
    arch        "LSB;label=32;scalar=64";
    class       volScalarField;
    location    "10.1";
    object      p;
}
// * * * * * * * * * * * * * * * * * * * * * * * * * * * * * * * * * * * * * //

dimensions      [0 2 -2 0 0 0 0];

internalField   nonuniform List<scalar> 
400
(
5.75676e-07
-0.000150405
-0.000534477
-0.00107167
-0.00173238
-0.00249385
-0.00318496
-0.00359753
-0.0035653
-0.00293404
-0.0015485
0.000619433
0.00324964
0.00551418
0.00653393
0.00592316
0.00400244
0.00215005
0.00111102
0.00104193
0.000116481
-5.79299e-05
-0.000376869
-0.000764039
-0.00124395
-0.00188807
-0.00270617
-0.00354347
-0.00407995
-0.00393836
-0.00284638
-0.000824815
0.00168943
0.00396102
0.00512488
0.00474337
0.00310338
0.00137518
0.000593594
0.000684575
0.000536593
0.000265131
-7.71548e-05
-0.000559507
-0.0013472
-0.00258057
-0.00421909
-0.00598371
-0.00740246
-0.00794376
-0.00726408
-0.00546189
-0.00289154
-0.000194528
0.00179192
0.00242799
0.00170913
0.000502473
-0.000395694
-0.000392442
0.00115209
0.000741409
0.000192034
-0.00077468
-0.00245103
-0.00493774
-0.00799501
-0.0111203
-0.0137031
-0.0151766
-0.0152065
-0.0138395
-0.0112933
-0.00802882
-0.00475202
-0.00220953
-0.000870214
-0.000706051
-0.00128864
-0.00191797
0.00158344
0.000973858
-2.27348e-05
-0.00192397
-0.00500653
-0.00917987
-0.0139134
-0.0184792
-0.0222155
-0.0246521
-0.0255277
-0.024722
-0.0223627
-0.0187428
-0.0143041
-0.00965532
-0.00559183
-0.00294871
-0.0021931
-0.00401778
0.00129347
0.000445149
-0.00119721
-0.00430422
-0.00900477
-0.0148802
-0.0210721
-0.0267143
-0.03119
-0.0341772
-0.0355439
-0.035188
-0.0331955
-0.0297174
-0.0248984
-0.0189602
-0.0125048
-0.00694805
-0.00440069
-0.00652394
-4.82053e-05
-0.00114742
-0.00349928
-0.00779657
-0.0139321
-0.0211136
-0.0282351
-0.0344063
-0.0391269
-0.04223
-0.0437176
-0.0436083
-0.0419707
-0.0388769
-0.0343093
-0.0281559
-0.0205381
-0.0127023
-0.00785448
-0.00774774
-0.00245034
-0.003742
-0.00669834
-0.011913
-0.0190392
-0.0269808
-0.0345026
-0.0407772
-0.0454485
-0.0484744
-0.049937
-0.0499283
-0.0485277
-0.045786
-0.0416603
-0.035925
-0.0283244
-0.0193702
-0.0118218
-0.00798029
-0.00553742
-0.00691495
-0.0102633
-0.0160213
-0.0236572
-0.0318881
-0.0394494
-0.0456105
-0.0501346
-0.0530544
-0.0544834
-0.0545235
-0.0532494
-0.0507228
-0.0469596
-0.04181
-0.0348663
-0.0259466
-0.0167084
-0.00999414
-0.00873344
-0.0100855
-0.0135972
-0.0195414
-0.0272852
-0.0354854
-0.0429099
-0.048907
-0.0533062
-0.0561638
-0.0575875
-0.0576587
-0.0564405
-0.0540078
-0.0504483
-0.0457581
-0.0396322
-0.0315226
-0.0223203
-0.0143392
-0.0115037
-0.0127574
-0.0162186
-0.0220533
-0.0296057
-0.0375867
-0.0448239
-0.0506962
-0.0550391
-0.0578901
-0.0593322
-0.0594238
-0.0582147
-0.0557852
-0.0522836
-0.0478497
-0.0424291
-0.0353811
-0.0271968
-0.0191784
-0.0135489
-0.0146181
-0.0178551
-0.0233144
-0.0304294
-0.0380607
-0.045115
-0.0509464
-0.0553252
-0.0582362
-0.0597236
-0.059826
-0.0585842
-0.0560792
-0.0525122
-0.0481354
-0.0432047
-0.0370547
-0.0300307
-0.0224162
-0.0148369
-0.0155673
-0.018351
-0.0232091
-0.0296917
-0.0368767
-0.0437619
-0.0496368
-0.054151
-0.0571967
-0.0587655
-0.0588726
-0.0575536
-0.054912
-0.0511739
-0.0466532
-0.0419635
-0.0362986
-0.0302249
-0.0228949
-0.0154672
-0.0157215
-0.0177765
-0.0217452
-0.0273881
-0.0340295
-0.0407479
-0.0467374
-0.0514892
-0.0547642
-0.0564779
-0.0566189
-0.0551975
-0.0523493
-0.0483431
-0.0435795
-0.038729
-0.0331402
-0.0280986
-0.0202784
-0.0155738
-0.0152976
-0.0163373
-0.0190868
-0.0236518
-0.0296324
-0.0361693
-0.042333
-0.0474243
-0.0510358
-0.0529763
-0.0531796
-0.0516873
-0.0485882
-0.0442242
-0.039052
-0.0337806
-0.0280708
-0.0242309
-0.0143845
-0.0152762
-0.0145496
-0.0142602
-0.0154252
-0.0186839
-0.0238933
-0.0302296
-0.0366124
-0.042135
-0.0461981
-0.048486
-0.0488631
-0.0473501
-0.0440183
-0.0392469
-0.0335176
-0.0276406
-0.0216291
-0.0180535
-0.00383299
-0.0146615
-0.0136177
-0.0117064
-0.0110806
-0.0129531
-0.0173794
-0.0235327
-0.0301687
-0.0361911
-0.040809
-0.0435759
-0.0442589
-0.0428481
-0.0393743
-0.0341838
-0.027689
-0.0206822
-0.0132766
-0.0067865
0.0160523
-0.0145828
-0.0126568
-0.0086482
-0.00623445
-0.00690986
-0.0107454
-0.0168171
-0.0237387
-0.0302969
-0.0355372
-0.0389014
-0.0400328
-0.0388755
-0.0354464
-0.0298949
-0.0222756
-0.0128731
-0.000689186
0.0166938
0.0570629
-0.0117943
-0.0118304
-0.005726
-0.00177509
-0.00176507
-0.00540463
-0.0115747
-0.0188141
-0.0258742
-0.0316858
-0.0356604
-0.0373599
-0.0366835
-0.033354
-0.0272234
-0.0175415
-0.00314898
0.020489
0.0607029
0.12982
-0.0295164
-0.0106295
-0.000608865
0.00308064
0.00244805
-0.00155704
-0.00799915
-0.0155526
-0.022975
-0.0291722
-0.0335301
-0.0355861
-0.0351995
-0.0319545
-0.0252269
-0.0128599
0.00942197
0.0511703
0.122877
0.226075
)
;

boundaryField
{
    movingWall
    {
        type            zeroGradient;
    }
    fixedWalls
    {
        type            zeroGradient;
    }
    frontAndBack
    {
        type            empty;
    }
}


// ************************************************************************* //
