/*--------------------------------*- C++ -*----------------------------------*\
| =========                 |                                                 |
| \\      /  F ield         | OpenFOAM: The Open Source CFD Toolbox           |
|  \\    /   O peration     | Version:  2212                                  |
|   \\  /    A nd           | Website:  www.openfoam.com                      |
|    \\/     M anipulation  |                                                 |
\*---------------------------------------------------------------------------*/
FoamFile
{
    version     2.0;
    format      ascii;
    arch        "LSB;label=32;scalar=64";
    class       surfaceScalarField;
    location    "10.1";
    object      phi;
}
// * * * * * * * * * * * * * * * * * * * * * * * * * * * * * * * * * * * * * //

dimensions      [0 3 -1 0 0 0 0];

oriented        oriented;

internalField   nonuniform List<scalar> 
760
(
1.56075e-07
-1.56127e-07
2.93619e-07
-1.37544e-07
3.09981e-07
-1.63626e-08
1.83672e-07
1.26309e-07
-1.20314e-07
3.03987e-07
-6.65929e-07
5.45615e-07
-1.48526e-06
8.19333e-07
-2.49084e-06
1.00558e-06
-3.48032e-06
9.89474e-07
-4.22031e-06
7.39992e-07
-4.54394e-06
3.23632e-07
-4.35363e-06
-1.90311e-07
-3.59375e-06
-7.59874e-07
-2.379e-06
-1.21475e-06
-9.40046e-07
-1.43895e-06
3.47717e-07
-1.28776e-06
1.08991e-06
-7.42194e-07
1.03307e-06
5.68447e-08
4.60991e-07
5.72073e-07
4.6099e-07
1.2504e-07
-2.81168e-07
7.4596e-08
-8.70992e-08
-2.97038e-07
3.55271e-07
-1.07891e-06
9.08185e-07
-2.31593e-06
1.54101e-06
-3.92739e-06
2.15707e-06
-5.66227e-06
2.55422e-06
-7.20699e-06
2.55029e-06
-8.33688e-06
2.11937e-06
-8.94223e-06
1.34534e-06
-8.97616e-06
3.5756e-07
-8.41616e-06
-7.50303e-07
-7.2936e-06
-1.88244e-06
-5.64202e-06
-2.86633e-06
-3.60582e-06
-3.47516e-06
-1.49025e-06
-3.40333e-06
1.78702e-07
-2.41115e-06
8.5897e-07
-6.23421e-07
5.25703e-07
9.05342e-07
9.86692e-07
-1.27606e-07
-1.53562e-07
-6.33939e-07
4.19234e-07
-1.62494e-06
1.34627e-06
-3.14148e-06
2.42472e-06
-5.05752e-06
3.45705e-06
-7.07335e-06
4.1729e-06
-8.87343e-06
4.35429e-06
-1.02777e-05
3.95454e-06
-1.12344e-05
3.07614e-06
-1.1736e-05
1.84689e-06
-1.173e-05
3.51609e-07
-1.12711e-05
-1.20921e-06
-1.03384e-05
-2.81513e-06
-8.87781e-06
-4.32697e-06
-6.86956e-06
-5.4834e-06
-4.40322e-06
-5.86968e-06
-1.87875e-06
-4.93562e-06
-8.64088e-08
-2.41576e-06
2.94688e-07
5.24247e-07
1.28138e-06
-5.00532e-07
3.4697e-07
-1.56e-06
1.4787e-06
-3.11951e-06
2.90578e-06
-5.08141e-06
4.38662e-06
-7.18529e-06
5.56093e-06
-9.12328e-06
6.11089e-06
-1.06931e-05
5.92413e-06
-1.18523e-05
5.11374e-06
-1.26289e-05
3.85276e-06
-1.30576e-05
2.27553e-06
-1.31226e-05
4.16659e-07
-1.28831e-05
-1.44871e-06
-1.23003e-05
-3.39793e-06
-1.12724e-05
-5.35486e-06
-9.66873e-06
-7.08708e-06
-7.36462e-06
-8.17379e-06
-4.39876e-06
-7.90148e-06
-1.37807e-06
-5.43645e-06
1.20731e-07
-9.74553e-07
1.40211e-06
-8.61954e-07
1.20892e-06
-2.36173e-06
2.97848e-06
-4.23283e-06
4.77688e-06
-6.2802e-06
6.43399e-06
-8.22262e-06
7.50334e-06
-9.83736e-06
7.72564e-06
-1.10478e-05
7.13454e-06
-1.18804e-05
5.94635e-06
-1.2397e-05
4.36935e-06
-1.26702e-05
2.54873e-06
-1.27908e-05
5.37245e-07
-1.27451e-05
-1.49435e-06
-1.25245e-05
-3.61859e-06
-1.20499e-05
-5.82944e-06
-1.11352e-05
-8.00178e-06
-9.49247e-06
-9.81653e-06
-6.82222e-06
-1.05717e-05
-3.223e-06
-9.03567e-06
-2.61172e-07
-3.93638e-06
1.14094e-06
-1.08711e-06
2.29604e-06
-2.78467e-06
4.67604e-06
-4.67849e-06
6.6707e-06
-6.53658e-06
8.29208e-06
-8.13459e-06
9.10135e-06
-9.3415e-06
8.93255e-06
-1.01533e-05
7.94637e-06
-1.06352e-05
6.42821e-06
-1.08773e-05
4.61144e-06
-1.09792e-05
2.6507e-06
-1.10624e-05
6.20449e-07
-1.1113e-05
-1.4438e-06
-1.11471e-05
-3.58445e-06
-1.1136e-05
-5.84057e-06
-1.09263e-05
-8.21149e-06
-1.01911e-05
-1.05517e-05
-8.43603e-06
-1.23268e-05
-5.24503e-06
-1.22267e-05
-1.15867e-06
-8.02274e-06
-1.77279e-08
-1.11123e-06
3.40727e-06
-2.75935e-06
6.32416e-06
-4.45736e-06
8.36871e-06
-5.99343e-06
9.82815e-06
-7.20745e-06
1.03154e-05
-8.03712e-06
9.76222e-06
-8.52022e-06
8.42946e-06
-8.74371e-06
6.65171e-06
-8.81107e-06
4.6788e-06
-8.81898e-06
2.65861e-06
-8.84953e-06
6.50997e-07
-8.92088e-06
-1.37245e-06
-9.05299e-06
-3.45234e-06
-9.25754e-06
-5.63603e-06
-9.47854e-06
-7.99048e-06
-9.48524e-06
-1.0545e-05
-8.75897e-06
-1.30531e-05
-6.54121e-06
-1.44444e-05
-2.42495e-06
-1.2139e-05
-2.44267e-06
-9.36612e-07
4.34388e-06
-2.34896e-06
7.73651e-06
-3.73692e-06
9.75666e-06
-4.91697e-06
1.10082e-05
-5.78818e-06
1.11866e-05
-6.33376e-06
1.03078e-05
-6.61092e-06
8.70662e-06
-6.71065e-06
6.75143e-06
-6.72878e-06
4.69692e-06
-6.73798e-06
2.66782e-06
-6.7736e-06
6.86617e-07
-6.85241e-06
-1.29364e-06
-6.99534e-06
-3.30941e-06
-7.23302e-06
-5.39834e-06
-7.58307e-06
-7.64043e-06
-7.95551e-06
-1.01726e-05
-7.94131e-06
-1.30673e-05
-6.72251e-06
-1.56632e-05
-3.58981e-06
-1.52717e-05
-6.03249e-06
-6.26048e-07
4.96992e-06
-1.68972e-06
8.80018e-06
-2.72396e-06
1.07909e-05
-3.56416e-06
1.18484e-05
-4.15481e-06
1.17772e-05
-4.50613e-06
1.06591e-05
-4.67702e-06
8.87752e-06
-4.74582e-06
6.82024e-06
-4.78464e-06
4.73573e-06
-4.83665e-06
2.71983e-06
-4.91168e-06
7.61651e-07
-5.01589e-06
-1.18943e-06
-5.15902e-06
-3.16629e-06
-5.36959e-06
-5.18777e-06
-5.70279e-06
-7.30724e-06
-6.1728e-06
-9.70259e-06
-6.56294e-06
-1.26771e-05
-6.13288e-06
-1.60933e-05
-3.92707e-06
-1.74775e-05
-9.95955e-06
-2.33264e-07
5.20319e-06
-8.95006e-07
9.46193e-06
-1.56756e-06
1.14635e-05
-2.09809e-06
1.23789e-05
-2.45897e-06
1.21381e-05
-2.6745e-06
1.08747e-05
-2.79289e-06
8.9959e-06
-2.86732e-06
6.89467e-06
-2.94224e-06
4.81066e-06
-3.03947e-06
2.81706e-06
-3.1617e-06
8.83882e-07
-3.30841e-06
-1.04272e-06
-3.47962e-06
-2.99507e-06
-3.68739e-06
-4.98001e-06
-3.98202e-06
-7.0126e-06
-4.446e-06
-9.23861e-06
-5.02799e-06
-1.20951e-05
-5.12733e-06
-1.5994e-05
-3.56073e-06
-1.90441e-05
-1.35203e-05
1.63763e-07
5.03943e-06
-7.04533e-08
9.69614e-06
-4.03922e-07
1.17969e-05
-6.55453e-07
1.26305e-05
-8.10983e-07
1.22937e-05
-9.01652e-07
1.09653e-05
-9.66816e-07
9.06106e-06
-1.03833e-06
6.96618e-06
-1.13272e-06
4.90505e-06
-1.25775e-06
2.9421e-06
-1.416e-06
1.04213e-06
-1.60959e-06
-8.49129e-07
-1.83694e-06
-2.76772e-06
-2.09566e-06
-4.72128e-06
-2.41292e-06
-6.69534e-06
-2.88008e-06
-8.77145e-06
-3.56272e-06
-1.14125e-05
-4.02713e-06
-1.55295e-05
-3.02686e-06
-2.00444e-05
-1.65471e-05
5.02474e-07
4.53695e-06
7.00712e-07
9.4979e-06
7.44112e-07
1.17535e-05
7.79863e-07
1.25947e-05
8.24825e-07
1.22487e-05
8.53699e-07
1.09364e-05
8.46849e-07
9.06791e-06
7.96093e-07
7.01694e-06
7.02226e-07
4.99892e-06
5.66937e-07
3.07738e-06
3.84992e-07
1.22408e-06
1.502e-07
-6.14335e-07
-1.38979e-07
-2.47854e-06
-4.89181e-07
-4.37108e-06
-9.03918e-07
-6.2806e-06
-1.42654e-06
-8.24883e-06
-2.20455e-06
-1.06345e-05
-2.95402e-06
-1.47801e-05
-2.46097e-06
-2.05374e-05
-1.90081e-05
7.59773e-07
3.77718e-06
1.35956e-06
8.89812e-06
1.75404e-06
1.1359e-05
2.08511e-06
1.22636e-05
2.35965e-06
1.19742e-05
2.54756e-06
1.07485e-05
2.64076e-06
8.97471e-06
2.64995e-06
7.00774e-06
2.58909e-06
5.05978e-06
2.46449e-06
3.20198e-06
2.2685e-06
1.42007e-06
1.98702e-06
-3.32853e-07
1.62073e-06
-2.11225e-06
1.16476e-06
-3.91511e-06
6.14882e-07
-5.73073e-06
-7.99732e-08
-7.55397e-06
-9.53721e-07
-9.76071e-06
-1.91686e-06
-1.38169e-05
-1.92416e-06
-2.05301e-05
-2.09323e-05
8.75529e-07
2.90165e-06
1.81901e-06
7.95464e-06
2.56407e-06
1.0614e-05
3.20815e-06
1.16196e-05
3.75875e-06
1.14236e-05
4.17265e-06
1.03346e-05
4.43408e-06
8.71329e-06
4.55695e-06
6.88487e-06
4.56408e-06
5.05266e-06
4.4704e-06
3.29566e-06
4.27367e-06
1.6168e-06
3.94122e-06
-4.05505e-10
3.49387e-06
-1.6649e-06
2.906e-06
-3.32723e-06
2.17889e-06
-5.00362e-06
1.33175e-06
-6.70684e-06
2.74289e-07
-8.70325e-06
-9.53188e-07
-1.25895e-05
-1.4249e-06
-2.00584e-05
-2.23572e-05
8.1141e-07
2.09024e-06
1.96498e-06
6.80106e-06
3.01263e-06
9.56633e-06
3.99068e-06
1.06415e-05
4.87225e-06
1.0542e-05
5.59135e-06
9.61554e-06
6.10888e-06
8.19576e-06
6.42777e-06
6.56597e-06
6.56873e-06
4.9117e-06
6.54953e-06
3.31486e-06
6.3683e-06
1.79803e-06
6.02232e-06
3.45568e-07
5.47853e-06
-1.12111e-06
4.74447e-06
-2.59316e-06
3.81232e-06
-4.07147e-06
2.71116e-06
-5.60568e-06
1.40166e-06
-7.39374e-06
-1.48956e-07
-1.10389e-05
-9.0906e-07
-1.92983e-05
-2.32662e-05
5.81436e-07
1.5088e-06
1.77023e-06
5.61227e-06
3.11537e-06
8.22119e-06
4.47305e-06
9.28383e-06
5.74577e-06
9.26927e-06
6.83492e-06
8.52638e-06
7.6751e-06
7.35559e-06
8.25358e-06
5.98748e-06
8.58262e-06
4.58266e-06
8.67877e-06
3.21871e-06
8.54862e-06
1.92819e-06
8.18926e-06
7.04931e-07
7.55654e-06
-4.88394e-07
6.66793e-06
-1.70456e-06
5.51083e-06
-2.91437e-06
4.12628e-06
-4.22114e-06
2.58842e-06
-5.85587e-06
9.69021e-07
-9.41946e-06
-1.38948e-07
-1.81903e-05
-2.34052e-05
1.54322e-07
1.35448e-06
1.04865e-06
4.71795e-06
2.53345e-06
6.73639e-06
4.26353e-06
7.55375e-06
5.9935e-06
7.53929e-06
7.53562e-06
6.98427e-06
8.78716e-06
6.10404e-06
9.7183e-06
5.05635e-06
1.0324e-05
3.97693e-06
1.06157e-05
2.92709e-06
1.05991e-05
1.94478e-06
1.02797e-05
1.02426e-06
9.61127e-06
1.80073e-07
8.61634e-06
-7.09619e-07
7.28465e-06
-1.58269e-06
5.66847e-06
-2.60495e-06
3.92901e-06
-4.11642e-06
2.25065e-06
-7.74109e-06
6.56909e-07
-1.65966e-05
-2.27483e-05
-5.19143e-07
1.87362e-06
2.03714e-07
3.99509e-06
1.76785e-06
5.17225e-06
3.8414e-06
5.48021e-06
6.00711e-06
5.37358e-06
7.97793e-06
5.01345e-06
9.61724e-06
4.46474e-06
1.08834e-05
3.79017e-06
1.17589e-05
3.10145e-06
1.22597e-05
2.42624e-06
1.23894e-05
1.81516e-06
1.21674e-05
1.24617e-06
1.16183e-05
7.2925e-07
1.0712e-05
1.96611e-07
9.45352e-06
-3.24172e-07
7.91653e-06
-1.06796e-06
6.28698e-06
-2.48687e-06
4.46677e-06
-5.92088e-06
2.05974e-06
-1.41896e-05
-2.06885e-05
-4.18157e-06
6.05519e-06
-3.64415e-06
3.45768e-06
-1.24382e-06
2.77192e-06
1.56262e-06
2.67376e-06
4.31118e-06
2.62502e-06
6.85477e-06
2.46986e-06
9.07968e-06
2.23983e-06
1.09254e-05
1.94447e-06
1.23733e-05
1.65356e-06
1.34503e-05
1.34926e-06
1.41733e-05
1.09209e-06
1.45872e-05
8.32251e-07
1.46796e-05
6.36903e-07
1.44593e-05
4.1691e-07
1.39225e-05
2.12672e-07
1.3085e-05
-2.30462e-07
1.19347e-05
-1.33658e-06
1.01167e-05
-4.10291e-06
5.63958e-06
-9.71248e-06
-1.50489e-05
6.05519e-06
9.51287e-06
1.22848e-05
1.49585e-05
1.75836e-05
2.00534e-05
2.22933e-05
2.42377e-05
2.58913e-05
2.72405e-05
2.83326e-05
2.91649e-05
2.98018e-05
3.02187e-05
3.04314e-05
3.02009e-05
2.88643e-05
2.47614e-05
1.50489e-05
)
;

boundaryField
{
    movingWall
    {
        type            calculated;
        value           uniform 0;
    }
    fixedWalls
    {
        type            calculated;
        value           uniform 0;
    }
    frontAndBack
    {
        type            empty;
        value           nonuniform List<scalar> 0();
    }
}


// ************************************************************************* //
