/*--------------------------------*- C++ -*----------------------------------*\
| =========                 |                                                 |
| \\      /  F ield         | OpenFOAM: The Open Source CFD Toolbox           |
|  \\    /   O peration     | Version:  2212                                  |
|   \\  /    A nd           | Website:  www.openfoam.com                      |
|    \\/     M anipulation  |                                                 |
\*---------------------------------------------------------------------------*/
FoamFile
{
    version     2.0;
    format      ascii;
    arch        "LSB;label=32;scalar=64";
    class       volScalarField;
    location    "10.1";
    object      T;
}
// * * * * * * * * * * * * * * * * * * * * * * * * * * * * * * * * * * * * * //

dimensions      [0 0 0 1 0 0 0];

internalField   nonuniform List<scalar> 
400
(
0.894343
0.896855
0.901949
0.909448
0.918112
0.925899
0.931352
0.934414
0.936002
0.93706
0.938009
0.938977
0.939998
0.941034
0.941915
0.94236
0.941911
0.940062
0.937064
0.934606
0.897611
0.900667
0.906782
0.915487
0.924595
0.931181
0.934323
0.935414
0.935817
0.936121
0.936674
0.937682
0.939209
0.941166
0.943141
0.944506
0.944297
0.94178
0.937916
0.935114
0.902698
0.906763
0.914297
0.923325
0.930363
0.933352
0.933396
0.932266
0.930811
0.929706
0.929546
0.930742
0.933309
0.937164
0.941597
0.945555
0.947277
0.944995
0.939482
0.936053
0.907668
0.912771
0.920952
0.928288
0.93153
0.930539
0.927262
0.923047
0.918852
0.915749
0.914543
0.915918
0.919705
0.925991
0.93391
0.942208
0.948549
0.949816
0.943633
0.938306
0.911503
0.917219
0.924821
0.929118
0.928083
0.922976
0.915785
0.907822
0.900528
0.895208
0.892805
0.894113
0.898921
0.907414
0.918832
0.931949
0.944435
0.95263
0.951186
0.942545
0.91407
0.919805
0.925867
0.926566
0.92124
0.911952
0.900682
0.88908
0.878972
0.871723
0.868282
0.869274
0.874681
0.884613
0.89859
0.915587
0.933608
0.949283
0.956918
0.948787
0.915565
0.920785
0.924777
0.921908
0.912653
0.89952
0.884632
0.870084
0.857905
0.849401
0.845354
0.846072
0.851658
0.862162
0.877425
0.896838
0.918816
0.940309
0.95633
0.957717
0.916287
0.920722
0.922654
0.916702
0.904105
0.887709
0.869942
0.853291
0.83983
0.83071
0.826438
0.827049
0.83256
0.842976
0.858368
0.878717
0.903196
0.929089
0.951305
0.962525
0.91648
0.920055
0.920191
0.911814
0.896648
0.877823
0.858058
0.84007
0.825892
0.816495
0.812139
0.812706
0.818091
0.828179
0.843027
0.863038
0.888515
0.917704
0.944825
0.960498
0.916331
0.919175
0.918085
0.908213
0.891403
0.870977
0.849911
0.83107
0.816423
0.806787
0.802265
0.802707
0.807956
0.817776
0.831985
0.850979
0.876041
0.90719
0.938993
0.95898
0.915953
0.918262
0.916487
0.905931
0.888346
0.867189
0.845584
0.826383
0.811457
0.801533
0.796686
0.796812
0.801786
0.811322
0.824977
0.842776
0.866449
0.898084
0.933557
0.958008
0.91541
0.917427
0.915605
0.905351
0.888016
0.867018
0.845525
0.826317
0.8112
0.800921
0.795616
0.795239
0.799701
0.808725
0.821725
0.838259
0.859943
0.890895
0.929215
0.957479
0.914696
0.916632
0.915187
0.905944
0.889714
0.869718
0.849073
0.830419
0.815489
0.805065
0.799361
0.798374
0.802072
0.810199
0.822161
0.837248
0.856525
0.885624
0.925779
0.957423
0.913764
0.91583
0.915184
0.907725
0.893588
0.875552
0.856552
0.839043
0.824679
0.814306
0.808244
0.806496
0.80913
0.815892
0.826267
0.839443
0.856028
0.882555
0.923561
0.957751
0.912528
0.914852
0.91499
0.909464
0.897931
0.882609
0.866102
0.850589
0.837559
0.827823
0.821774
0.819397
0.820811
0.825816
0.834006
0.844826
0.858545
0.881644
0.922396
0.958473
0.911051
0.913723
0.914866
0.911562
0.90319
0.891307
0.878033
0.865192
0.85407
0.8454
0.839575
0.83665
0.836656
0.839545
0.845069
0.852965
0.863582
0.88256
0.92235
0.959609
0.909594
0.912211
0.91363
0.911891
0.906402
0.898158
0.88864
0.879196
0.870769
0.863939
0.858962
0.85598
0.854899
0.855828
0.858754
0.863636
0.871469
0.88685
0.924665
0.961543
0.908561
0.911584
0.913753
0.913315
0.910372
0.905506
0.899584
0.89343
0.887644
0.882673
0.87868
0.875853
0.874175
0.873751
0.874855
0.877371
0.883162
0.895028
0.929021
0.963981
0.895129
0.90888
0.909134
0.908964
0.907414
0.905221
0.902653
0.900243
0.898018
0.896381
0.895188
0.894668
0.894738
0.895355
0.896972
0.899027
0.904265
0.913372
0.939225
0.968162
0.926288
0.935249
0.940083
0.943023
0.944641
0.945684
0.946267
0.946847
0.947269
0.947883
0.948425
0.949212
0.94994
0.950913
0.951844
0.953126
0.954742
0.958132
0.964847
0.976729
)
;

boundaryField
{
    movingWall
    {
        type            fixedValue;
        value           uniform 1;
    }
    fixedWalls
    {
        type            zeroGradient;
    }
    frontAndBack
    {
        type            empty;
    }
}


// ************************************************************************* //
