/*--------------------------------*- C++ -*----------------------------------*\
| =========                 |                                                 |
| \\      /  F ield         | OpenFOAM: The Open Source CFD Toolbox           |
|  \\    /   O peration     | Version:  2212                                  |
|   \\  /    A nd           | Website:  www.openfoam.com                      |
|    \\/     M anipulation  |                                                 |
\*---------------------------------------------------------------------------*/
FoamFile
{
    version     2.0;
    format      ascii;
    arch        "LSB;label=32;scalar=64";
    class       volVectorField;
    location    "10.1";
    object      U;
}
// * * * * * * * * * * * * * * * * * * * * * * * * * * * * * * * * * * * * * //

dimensions      [0 1 -1 0 0 0 0];

internalField   nonuniform List<vector> 
400
(
(0.00168172 -0.0016838 0)
(0.00483854 -0.00189224 0)
(0.00659099 -0.00120072 0)
(0.00567466 -0.000575124 0)
(0.00157206 0.000183988 0)
(-0.00682928 0.00173938 0)
(-0.0206083 0.00478636 0)
(-0.0395414 0.00873607 0)
(-0.0608116 0.0112927 0)
(-0.0791382 0.0105125 0)
(-0.0898135 0.00677451 0)
(-0.090464 0.00166896 0)
(-0.0802267 -0.00361653 0)
(-0.0599943 -0.00827501 0)
(-0.0335212 -0.0108472 0)
(-0.00529281 -0.00979532 0)
(0.0167238 -0.00477308 0)
(0.0244707 0.00277688 0)
(0.0161788 0.00647227 0)
(0.00431655 0.00471715 0)
(0.00172044 -0.0050652 0)
(0.00316255 -0.00403243 0)
(-0.000417231 0.000587779 0)
(-0.01133 0.00644171 0)
(-0.0314263 0.0140502 0)
(-0.0611504 0.0237742 0)
(-0.0968476 0.0330621 0)
(-0.131461 0.0370931 0)
(-0.158974 0.0335178 0)
(-0.176106 0.0234015 0)
(-0.181453 0.00910928 0)
(-0.175082 -0.00699026 0)
(-0.157563 -0.0231746 0)
(-0.129653 -0.0369147 0)
(-0.0936155 -0.0445664 0)
(-0.0521948 -0.0418393 0)
(-0.0114001 -0.0263344 0)
(0.0168898 -0.00127899 0)
(0.0178723 0.016224 0)
(0.00554225 0.0148201 0)
(-0.000239624 -0.00578042 0)
(-0.00538127 0.000801776 0)
(-0.0196097 0.0142995 0)
(-0.0445048 0.0312366 0)
(-0.0803428 0.0494466 0)
(-0.122207 0.0643221 0)
(-0.162354 0.0705481 0)
(-0.195277 0.0660301 0)
(-0.218871 0.0521919 0)
(-0.232539 0.0315342 0)
(-0.236295 0.00641617 0)
(-0.230809 -0.0211142 0)
(-0.216395 -0.0488744 0)
(-0.192548 -0.0732288 0)
(-0.15901 -0.0890287 0)
(-0.115744 -0.0892315 0)
(-0.0645641 -0.06703 0)
(-0.0138213 -0.0226646 0)
(0.00948155 0.0179189 0)
(0.00415546 0.0235804 0)
(-0.00347203 0.000453286 0)
(-0.0175153 0.0172408 0)
(-0.0435176 0.041502 0)
(-0.0796853 0.0681971 0)
(-0.122964 0.0911642 0)
(-0.16586 0.103852 0)
(-0.201932 0.102907 0)
(-0.229257 0.0896741 0)
(-0.248097 0.0673277 0)
(-0.259052 0.0385802 0)
(-0.26296 0.00531701 0)
(-0.260627 -0.0311186 0)
(-0.251994 -0.0684576 0)
(-0.236014 -0.103747 0)
(-0.210701 -0.131495 0)
(-0.173353 -0.142895 0)
(-0.121406 -0.125768 0)
(-0.0568457 -0.070854 0)
(-0.000986949 0.00356666 0)
(0.0047423 0.0282411 0)
(-0.00666303 0.0147833 0)
(-0.0287313 0.0441128 0)
(-0.0632935 0.0770988 0)
(-0.104468 0.108927 0)
(-0.147291 0.131217 0)
(-0.184593 0.138205 0)
(-0.212934 0.129511 0)
(-0.232719 0.108752 0)
(-0.245237 0.0798007 0)
(-0.252214 0.0454488 0)
(-0.255333 0.00723999 0)
(-0.255514 -0.0339996 0)
(-0.252534 -0.0770868 0)
(-0.245852 -0.120692 0)
(-0.232655 -0.160829 0)
(-0.208331 -0.18904 0)
(-0.166827 -0.189988 0)
(-0.103453 -0.142884 0)
(-0.0221828 -0.0388539 0)
(0.0073821 0.0271019 0)
(-0.00851147 0.0348752 0)
(-0.0351801 0.076644 0)
(-0.0730989 0.114962 0)
(-0.113274 0.147715 0)
(-0.150541 0.166049 0)
(-0.179407 0.165985 0)
(-0.198934 0.149774 0)
(-0.210682 0.122513 0)
(-0.216632 0.0885503 0)
(-0.219264 0.0508725 0)
(-0.220533 0.0109551 0)
(-0.221434 -0.0307597 0)
(-0.222166 -0.0747246 0)
(-0.222838 -0.121297 0)
(-0.221265 -0.169244 0)
(-0.212361 -0.213077 0)
(-0.18804 -0.238605 0)
(-0.139697 -0.218554 0)
(-0.0628531 -0.118948 0)
(0.0058494 0.0142039 0)
(-0.00829382 0.0570098 0)
(-0.035346 0.11002 0)
(-0.0718454 0.150511 0)
(-0.10709 0.181206 0)
(-0.136729 0.193901 0)
(-0.157138 0.186505 0)
(-0.169051 0.163341 0)
(-0.17459 0.130555 0)
(-0.176165 0.0929074 0)
(-0.176265 0.0534124 0)
(-0.176379 0.0133144 0)
(-0.177179 -0.0273126 0)
(-0.179211 -0.0695817 0)
(-0.183019 -0.114736 0)
(-0.187966 -0.16387 0)
(-0.190435 -0.215839 0)
(-0.182546 -0.26169 0)
(-0.154295 -0.275207 0)
(-0.0994111 -0.205928 0)
(-0.00890851 -0.0146252 0)
(-0.0061367 0.0776085 0)
(-0.0297976 0.140576 0)
(-0.0614375 0.181251 0)
(-0.0899125 0.208371 0)
(-0.111926 0.214961 0)
(-0.125465 0.200634 0)
(-0.132157 0.171401 0)
(-0.134311 0.134236 0)
(-0.134375 0.0941194 0)
(-0.134276 0.0537535 0)
(-0.134683 0.0138635 0)
(-0.135776 -0.0258912 0)
(-0.138008 -0.066489 0)
(-0.142071 -0.109108 0)
(-0.148583 -0.155698 0)
(-0.156246 -0.208613 0)
(-0.1591 -0.265938 0)
(-0.14677 -0.308173 0)
(-0.112269 -0.277243 0)
(-0.0309696 -0.0753451 0)
(-0.00273082 0.0936308 0)
(-0.0204235 0.165672 0)
(-0.0451633 0.205647 0)
(-0.0663628 0.228643 0)
(-0.0816348 0.229605 0)
(-0.0901279 0.209618 0)
(-0.0937621 0.175865 0)
(-0.0946759 0.135826 0)
(-0.0949548 0.0944787 0)
(-0.0957514 0.0540349 0)
(-0.0971018 0.0145942 0)
(-0.0989118 -0.0245875 0)
(-0.101348 -0.06424 0)
(-0.104914 -0.105013 0)
(-0.110759 -0.148496 0)
(-0.119619 -0.198617 0)
(-0.128371 -0.259845 0)
(-0.126542 -0.323507 0)
(-0.107493 -0.33481 0)
(-0.0373547 -0.163462 0)
(0.00121934 0.102779 0)
(-0.00894613 0.183517 0)
(-0.0256522 0.223205 0)
(-0.0396543 0.24283 0)
(-0.0491361 0.239596 0)
(-0.0540107 0.215622 0)
(-0.0559817 0.178865 0)
(-0.0566958 0.137167 0)
(-0.0576577 0.0954104 0)
(-0.0594005 0.0552747 0)
(-0.0616938 0.0163104 0)
(-0.0643943 -0.0224939 0)
(-0.067493 -0.0617445 0)
(-0.0711681 -0.10164 0)
(-0.0763515 -0.142848 0)
(-0.0846132 -0.188992 0)
(-0.09608 -0.248413 0)
(-0.100662 -0.324375 0)
(-0.0951819 -0.372278 0)
(-0.0309261 -0.242618 0)
(0.0051191 0.103946 0)
(0.00295745 0.193119 0)
(-0.00539157 0.233702 0)
(-0.0125099 0.250864 0)
(-0.0169018 0.24478 0)
(-0.0187896 0.218563 0)
(-0.0194785 0.1805 0)
(-0.0200074 0.138424 0)
(-0.0213061 0.0969654 0)
(-0.0235423 0.0574255 0)
(-0.0264313 0.0190825 0)
(-0.0299149 -0.0191687 0)
(-0.0340094 -0.0579827 0)
(-0.0386532 -0.0974104 0)
(-0.0443917 -0.137369 0)
(-0.0524515 -0.18024 0)
(-0.065768 -0.235714 0)
(-0.0742262 -0.318154 0)
(-0.0812031 -0.396784 0)
(-0.0229434 -0.307179 0)
(0.00845891 0.0974716 0)
(0.0142228 0.194112 0)
(0.0141058 0.237226 0)
(0.0137113 0.253646 0)
(0.0143343 0.246567 0)
(0.0155314 0.219859 0)
(0.0163912 0.181809 0)
(0.0164451 0.140094 0)
(0.0153073 0.0991532 0)
(0.0130303 0.0602255 0)
(0.0098625 0.0226267 0)
(0.00575418 -0.0147527 0)
(0.000562276 -0.0526975 0)
(-0.00556357 -0.0913035 0)
(-0.0130317 -0.130199 0)
(-0.0219789 -0.170381 0)
(-0.0377195 -0.220759 0)
(-0.04873 -0.304515 0)
(-0.0679047 -0.408527 0)
(-0.0144592 -0.360061 0)
(0.0103307 0.0844912 0)
(0.0234223 0.186516 0)
(0.0310871 0.233349 0)
(0.0370178 0.250191 0)
(0.0426806 0.243352 0)
(0.0476363 0.217567 0)
(0.0510744 0.180804 0)
(0.0527509 0.140397 0)
(0.0526201 0.100634 0)
(0.0508913 0.0628232 0)
(0.0477819 0.0264572 0)
(0.0431738 -0.00952078 0)
(0.0368998 -0.0460019 0)
(0.0290838 -0.0831408 0)
(0.0189277 -0.120569 0)
(0.00760108 -0.158513 0)
(-0.0118146 -0.204472 0)
(-0.0242369 -0.286517 0)
(-0.055843 -0.411033 0)
(-0.00613722 -0.401908 0)
(0.00987947 0.0672381 0)
(0.0290344 0.170705 0)
(0.0443626 0.222257 0)
(0.0569072 0.241356 0)
(0.068203 0.236429 0)
(0.0778923 0.213067 0)
(0.0851156 0.178774 0)
(0.0895723 0.140432 0)
(0.0913388 0.10227 0)
(0.0907148 0.0658313 0)
(0.08803 0.0309797 0)
(0.0829807 -0.00330226 0)
(0.0754655 -0.0375483 0)
(0.0657722 -0.0723333 0)
(0.0525187 -0.107462 0)
(0.0375833 -0.142812 0)
(0.0131388 -0.184299 0)
(8.53751e-05 -0.263278 0)
(-0.044795 -0.406733 0)
(0.00276641 -0.436284 0)
(0.00693079 0.049398 0)
(0.0293695 0.148979 0)
(0.0511218 0.203664 0)
(0.0700039 0.224586 0)
(0.0874834 0.22173 0)
(0.103181 0.201572 0)
(0.115855 0.170977 0)
(0.124823 0.136085 0)
(0.129997 0.100885 0)
(0.131619 0.0670545 0)
(0.129956 0.0348438 0)
(0.125032 0.00342877 0)
(0.1164 -0.0274709 0)
(0.104666 -0.0587129 0)
(0.0875697 -0.0903394 0)
(0.0683765 -0.12296 0)
(0.0383079 -0.16088 0)
(0.0238666 -0.237177 0)
(-0.0344364 -0.398978 0)
(0.0134763 -0.46444 0)
(0.00238746 0.034626 0)
(0.0236451 0.123907 0)
(0.0509675 0.179967 0)
(0.0767045 0.20297 0)
(0.101375 0.20266 0)
(0.124263 0.186259 0)
(0.143721 0.160202 0)
(0.158534 0.129769 0)
(0.168282 0.0985743 0)
(0.173175 0.0683058 0)
(0.173151 0.0395609 0)
(0.168923 0.0119341 0)
(0.159085 -0.0149166 0)
(0.14535 -0.0417248 0)
(0.124043 -0.0687703 0)
(0.100497 -0.0975743 0)
(0.0646367 -0.13273 0)
(0.0470145 -0.207471 0)
(-0.0227006 -0.387092 0)
(0.0285348 -0.485564 0)
(-0.00342635 0.028612 0)
(0.0100748 0.101504 0)
(0.0371193 0.148708 0)
(0.0689901 0.169478 0)
(0.10189 0.1707 0)
(0.133616 0.158409 0)
(0.16162 0.137973 0)
(0.18417 0.113568 0)
(0.200223 0.0882783 0)
(0.210151 0.0636338 0)
(0.213077 0.0403801 0)
(0.210824 0.0183997 0)
(0.200558 -0.00268207 0)
(0.185923 -0.0233218 0)
(0.161103 -0.0439901 0)
(0.134479 -0.0677535 0)
(0.092941 -0.101705 0)
(0.0698826 -0.180023 0)
(-0.00436399 -0.370057 0)
(0.052163 -0.491644 0)
(-0.0140127 0.0185158 0)
(-0.00751613 0.0881758 0)
(0.0192232 0.124199 0)
(0.0564621 0.137328 0)
(0.0976225 0.136922 0)
(0.138012 0.12774 0)
(0.174271 0.113082 0)
(0.204122 0.095302 0)
(0.226022 0.0768274 0)
(0.241119 0.0586763 0)
(0.247155 0.0418013 0)
(0.248072 0.026105 0)
(0.238731 0.011739 0)
(0.226912 -0.00205388 0)
(0.201908 -0.0160955 0)
(0.177918 -0.0350324 0)
(0.133564 -0.0678107 0)
(0.107845 -0.146006 0)
(0.0374746 -0.32612 0)
(0.0923684 -0.455871 0)
(-0.10602 0.0824169 0)
(-0.0777605 0.06899 0)
(-0.0485678 0.073371 0)
(0.00378359 0.0778924 0)
(0.0573029 0.0782272 0)
(0.110039 0.0739634 0)
(0.157213 0.066628 0)
(0.19958 0.0572228 0)
(0.231694 0.0475459 0)
(0.259849 0.0378884 0)
(0.275578 0.0292199 0)
(0.290733 0.0212326 0)
(0.291084 0.0144741 0)
(0.295193 0.00809004 0)
(0.278887 0.00112131 0)
(0.271668 -0.0100161 0)
(0.232354 -0.0355707 0)
(0.218145 -0.0954202 0)
(0.150208 -0.229723 0)
(0.170672 -0.341455 0)
(0.129969 0.103744 0)
(0.158319 0.0752273 0)
(0.212164 0.053227 0)
(0.270672 0.0416223 0)
(0.323249 0.0359128 0)
(0.375692 0.0319486 0)
(0.420289 0.0289165 0)
(0.46561 0.025581 0)
(0.498707 0.0229029 0)
(0.533959 0.0197105 0)
(0.553398 0.0175475 0)
(0.579208 0.0146095 0)
(0.585345 0.0131645 0)
(0.603683 0.0103455 0)
(0.595102 0.00938303 0)
(0.603602 0.00499937 0)
(0.567792 8.88816e-05 0)
(0.547612 -0.0183161 0)
(0.43569 -0.0504144 0)
(0.336753 -0.101386 0)
)
;

boundaryField
{
    movingWall
    {
        type            fixedValue;
        value           uniform (1 0 0);
    }
    fixedWalls
    {
        type            noSlip;
    }
    frontAndBack
    {
        type            empty;
    }
}


// ************************************************************************* //
