/*--------------------------------*- C++ -*----------------------------------*\
| =========                 |                                                 |
| \\      /  F ield         | OpenFOAM: The Open Source CFD Toolbox           |
|  \\    /   O peration     | Version:  2212                                  |
|   \\  /    A nd           | Website:  www.openfoam.com                      |
|    \\/     M anipulation  |                                                 |
\*---------------------------------------------------------------------------*/
FoamFile
{
    version     2.0;
    format      ascii;
    arch        "LSB;label=32;scalar=64";
    class       volScalarField;
    location    "19.2";
    object      T;
}
// * * * * * * * * * * * * * * * * * * * * * * * * * * * * * * * * * * * * * //

dimensions      [0 0 0 1 0 0 0];

internalField   nonuniform List<scalar> 
400
(
0.982841
0.9832
0.983925
0.984999
0.986254
0.987404
0.988232
0.988718
0.988983
0.989164
0.989328
0.989499
0.989682
0.989872
0.990039
0.990137
0.990088
0.989812
0.989353
0.988977
0.983298
0.983737
0.984615
0.985875
0.987211
0.9882
0.988688
0.98886
0.988918
0.988962
0.989053
0.989228
0.989499
0.989852
0.990215
0.990481
0.990485
0.990102
0.989498
0.989063
0.98401
0.9846
0.985695
0.987016
0.988058
0.9885
0.98848
0.988261
0.987989
0.987783
0.987747
0.987955
0.988409
0.989095
0.98989
0.990613
0.990962
0.990637
0.989764
0.989223
0.984707
0.985454
0.98665
0.98772
0.988173
0.98796
0.98736
0.986597
0.985844
0.985287
0.98507
0.985311
0.98598
0.987092
0.988495
0.989972
0.99112
0.991411
0.990445
0.989594
0.985242
0.986079
0.987179
0.987769
0.987522
0.986598
0.985308
0.983888
0.98259
0.981643
0.981215
0.981447
0.982299
0.983804
0.985824
0.988141
0.990349
0.991823
0.991668
0.990282
0.985593
0.986424
0.987269
0.987269
0.986292
0.984633
0.982623
0.98056
0.97876
0.977469
0.976855
0.977032
0.977996
0.979764
0.982246
0.985255
0.988434
0.991195
0.992573
0.991288
0.985785
0.986523
0.98702
0.98642
0.984761
0.982421
0.979769
0.977179
0.975004
0.973483
0.972758
0.972886
0.973886
0.975764
0.978486
0.981937
0.985828
0.989614
0.992428
0.992732
0.985863
0.986467
0.986615
0.985488
0.983241
0.98032
0.977153
0.974181
0.971769
0.970132
0.969364
0.969473
0.970462
0.972332
0.975087
0.978717
0.983065
0.98764
0.991542
0.993503
0.985862
0.986323
0.986164
0.984616
0.981915
0.97856
0.975033
0.971814
0.969268
0.967576
0.966789
0.96689
0.96786
0.969675
0.972342
0.975924
0.980462
0.985632
0.990407
0.99315
0.985814
0.986157
0.985789
0.983978
0.980983
0.97734
0.973577
0.9702
0.967565
0.965827
0.965008
0.965086
0.966032
0.967802
0.97036
0.973769
0.978246
0.983774
0.98938
0.992882
0.985734
0.985996
0.985512
0.983575
0.980439
0.976665
0.972803
0.969359
0.966672
0.96488
0.964002
0.964023
0.96492
0.96664
0.9691
0.972301
0.976539
0.982165
0.988425
0.992711
0.985632
0.985858
0.985371
0.983479
0.980383
0.976636
0.972793
0.969348
0.966627
0.964771
0.96381
0.96374
0.964545
0.966172
0.968515
0.97149
0.97538
0.980893
0.987661
0.992618
0.985506
0.985733
0.985319
0.983595
0.980688
0.977119
0.973429
0.970085
0.9674
0.96552
0.964489
0.964309
0.964975
0.96644
0.968594
0.97131
0.974772
0.979963
0.987058
0.992607
0.985347
0.985613
0.985349
0.983932
0.981386
0.978164
0.974769
0.971634
0.969054
0.967187
0.966093
0.965777
0.96625
0.967467
0.969334
0.971704
0.974685
0.979422
0.986669
0.992664
0.98514
0.985464
0.985349
0.984265
0.98217
0.979427
0.976478
0.973703
0.971368
0.969619
0.968531
0.968102
0.968355
0.969255
0.970727
0.972672
0.975139
0.979267
0.986467
0.99279
0.984895
0.985292
0.98537
0.984677
0.98313
0.980989
0.978613
0.976317
0.974327
0.972774
0.971729
0.971203
0.971204
0.971723
0.972715
0.974134
0.976042
0.979436
0.986461
0.992989
0.98465
0.985042
0.985182
0.984773
0.983732
0.98223
0.980518
0.978826
0.977318
0.976096
0.975204
0.974671
0.974478
0.974646
0.975172
0.97605
0.977456
0.980204
0.986871
0.993327
0.984477
0.984955
0.985244
0.985074
0.984486
0.983578
0.982499
0.981388
0.980348
0.979457
0.978742
0.978237
0.977938
0.977864
0.978062
0.978514
0.979546
0.981658
0.987639
0.993754
0.982131
0.984428
0.984417
0.98433
0.984012
0.983591
0.983111
0.982664
0.982255
0.981953
0.981731
0.98163
0.981635
0.981737
0.982017
0.982376
0.983296
0.984897
0.989432
0.994485
0.987451
0.988967
0.989778
0.990263
0.990522
0.990683
0.990767
0.990852
0.990912
0.991007
0.991092
0.99122
0.991339
0.991501
0.991658
0.991875
0.992154
0.992741
0.993914
0.995978
)
;

boundaryField
{
    movingWall
    {
        type            fixedValue;
        value           uniform 1;
    }
    fixedWalls
    {
        type            zeroGradient;
    }
    frontAndBack
    {
        type            empty;
    }
}


// ************************************************************************* //
