/*--------------------------------*- C++ -*----------------------------------*\
| =========                 |                                                 |
| \\      /  F ield         | OpenFOAM: The Open Source CFD Toolbox           |
|  \\    /   O peration     | Version:  2212                                  |
|   \\  /    A nd           | Website:  www.openfoam.com                      |
|    \\/     M anipulation  |                                                 |
\*---------------------------------------------------------------------------*/
FoamFile
{
    version     2.0;
    format      ascii;
    arch        "LSB;label=32;scalar=64";
    class       volScalarField;
    location    "20";
    object      T;
}
// * * * * * * * * * * * * * * * * * * * * * * * * * * * * * * * * * * * * * //

dimensions      [0 0 0 1 0 0 0];

internalField   nonuniform List<scalar> 
400
(
0.985283
0.98559
0.986212
0.987132
0.988208
0.989193
0.989903
0.99032
0.990547
0.990702
0.990843
0.99099
0.991147
0.99131
0.991454
0.991538
0.991496
0.991259
0.990865
0.990543
0.985674
0.98605
0.986803
0.987882
0.989028
0.989876
0.990294
0.990441
0.990491
0.990529
0.990607
0.990757
0.99099
0.991292
0.991604
0.991832
0.991836
0.991508
0.99099
0.990617
0.986284
0.98679
0.987728
0.98886
0.989753
0.990133
0.990115
0.989927
0.989694
0.989516
0.989486
0.989664
0.990054
0.990642
0.991325
0.991945
0.992246
0.991967
0.991218
0.990754
0.986881
0.987522
0.988546
0.989464
0.989852
0.989669
0.989154
0.988499
0.987853
0.987375
0.987188
0.987395
0.987969
0.988924
0.990128
0.991395
0.99238
0.992631
0.991803
0.991072
0.98734
0.988057
0.989
0.989505
0.989293
0.9885
0.987393
0.986174
0.98506
0.984247
0.98388
0.984079
0.984811
0.986102
0.987835
0.989823
0.991718
0.992984
0.992851
0.991663
0.987641
0.988353
0.989076
0.989076
0.988237
0.986813
0.985088
0.983317
0.981773
0.980665
0.980139
0.980291
0.981118
0.982635
0.984765
0.987347
0.990075
0.992445
0.993627
0.992525
0.987805
0.988437
0.988863
0.988347
0.986924
0.984915
0.982639
0.980416
0.97855
0.977244
0.976622
0.976732
0.97759
0.979202
0.981538
0.9845
0.987839
0.991088
0.993502
0.993763
0.987871
0.988388
0.988514
0.987547
0.985619
0.983112
0.980394
0.977843
0.975774
0.974369
0.973709
0.973802
0.974652
0.976256
0.978621
0.981737
0.985468
0.989394
0.992742
0.994425
0.987871
0.988265
0.988128
0.986799
0.984481
0.981601
0.978574
0.975812
0.973627
0.972175
0.971499
0.971586
0.972418
0.973976
0.976265
0.97934
0.983234
0.987671
0.991769
0.994122
0.987829
0.988123
0.987806
0.986251
0.983681
0.980554
0.977325
0.974427
0.972165
0.970673
0.969971
0.970038
0.97085
0.972369
0.974564
0.97749
0.981332
0.986077
0.990887
0.993892
0.98776
0.987984
0.987569
0.985905
0.983214
0.979975
0.97666
0.973705
0.971398
0.96986
0.969107
0.969125
0.969895
0.971371
0.973483
0.97623
0.979867
0.984696
0.990068
0.993746
0.987673
0.987866
0.987447
0.985823
0.983166
0.97995
0.976652
0.973695
0.97136
0.969767
0.968943
0.968882
0.969573
0.97097
0.97298
0.975534
0.978872
0.983604
0.989412
0.993665
0.987565
0.987759
0.987402
0.985923
0.983428
0.980365
0.977198
0.974328
0.972024
0.97041
0.969525
0.96937
0.969942
0.971199
0.973048
0.975379
0.978351
0.982805
0.988894
0.993656
0.987428
0.987656
0.987429
0.986212
0.984027
0.981262
0.978348
0.975657
0.973443
0.971841
0.970902
0.97063
0.971037
0.972081
0.973684
0.975718
0.978276
0.982342
0.98856
0.993705
0.98725
0.987529
0.987429
0.986498
0.9847
0.982345
0.979814
0.977433
0.975429
0.973928
0.972994
0.972626
0.972843
0.973615
0.974879
0.976548
0.978665
0.982208
0.988387
0.993814
0.98704
0.987381
0.987447
0.986852
0.985524
0.983687
0.981647
0.979677
0.977969
0.976635
0.975739
0.975288
0.975288
0.975733
0.976585
0.977803
0.979441
0.982353
0.988382
0.993984
0.98683
0.987166
0.987286
0.986934
0.986041
0.984752
0.983282
0.98183
0.980535
0.979486
0.978722
0.978264
0.978098
0.978242
0.978694
0.979448
0.980654
0.983013
0.988734
0.994274
0.986682
0.987092
0.987339
0.987193
0.986688
0.985909
0.984982
0.984029
0.983136
0.982371
0.981758
0.981325
0.981068
0.981004
0.981174
0.981562
0.982448
0.98426
0.989393
0.99464
0.984669
0.986639
0.986629
0.986554
0.986281
0.98592
0.985508
0.985125
0.984773
0.984514
0.984323
0.984237
0.984241
0.984329
0.984569
0.984877
0.985666
0.98704
0.990932
0.995267
0.989233
0.990534
0.991229
0.991646
0.991867
0.992006
0.992078
0.992151
0.992202
0.992284
0.992356
0.992466
0.992568
0.992707
0.992842
0.993028
0.993267
0.993771
0.994778
0.996549
)
;

boundaryField
{
    movingWall
    {
        type            fixedValue;
        value           uniform 1;
    }
    fixedWalls
    {
        type            zeroGradient;
    }
    frontAndBack
    {
        type            empty;
    }
}


// ************************************************************************* //
