/*--------------------------------*- C++ -*----------------------------------*\
| =========                 |                                                 |
| \\      /  F ield         | OpenFOAM: The Open Source CFD Toolbox           |
|  \\    /   O peration     | Version:  2212                                  |
|   \\  /    A nd           | Website:  www.openfoam.com                      |
|    \\/     M anipulation  |                                                 |
\*---------------------------------------------------------------------------*/
FoamFile
{
    version     2.0;
    format      ascii;
    arch        "LSB;label=32;scalar=64";
    class       volScalarField;
    location    "9.5";
    object      p;
}
// * * * * * * * * * * * * * * * * * * * * * * * * * * * * * * * * * * * * * //

dimensions      [0 2 -2 0 0 0 0];

internalField   nonuniform List<scalar> 
400
(
4.93301e-07
-0.000150504
-0.000534572
-0.00107176
-0.00173245
-0.00249389
-0.00318499
-0.00359754
-0.0035653
-0.00293404
-0.00154852
0.000619377
0.00324956
0.00551411
0.00653391
0.00592323
0.00400258
0.00215023
0.00111122
0.00104213
0.000116381
-5.80316e-05
-0.000376964
-0.000764126
-0.00124403
-0.00188813
-0.0027062
-0.00354347
-0.00407993
-0.00393834
-0.00284637
-0.000824842
0.00168938
0.00396098
0.00512489
0.00474347
0.00310356
0.00137538
0.000593788
0.000684769
0.000536477
0.000265022
-7.72551e-05
-0.000559596
-0.00134727
-0.0025806
-0.00421906
-0.00598362
-0.00740233
-0.00794361
-0.00726395
-0.0054618
-0.00289149
-0.000194483
0.00179199
0.00242812
0.00170932
0.000502691
-0.00039548
-0.000392239
0.00115195
0.00074128
0.000191922
-0.000774764
-0.00245106
-0.00493768
-0.00799485
-0.01112
-0.0137027
-0.0151762
-0.0152061
-0.0138392
-0.011293
-0.00802857
-0.00475181
-0.00220933
-0.00087
-0.00070583
-0.00128841
-0.00191776
0.00158327
0.000973703
-2.28547e-05
-0.00192402
-0.00500647
-0.00917966
-0.013913
-0.0184787
-0.0222148
-0.0246513
-0.0255269
-0.0247212
-0.022362
-0.0187422
-0.0143036
-0.00965495
-0.00559155
-0.00294847
-0.00219288
-0.00401754
0.00129327
0.000444983
-0.00119731
-0.0043042
-0.00900456
-0.0148797
-0.0210714
-0.0267134
-0.0311889
-0.0341759
-0.0355426
-0.0351867
-0.0331943
-0.0297165
-0.0248976
-0.0189596
-0.0125043
-0.00694774
-0.00440045
-0.00652366
-4.8393e-05
-0.00114757
-0.00349933
-0.00779643
-0.0139317
-0.0211129
-0.0282341
-0.0344049
-0.0391253
-0.0422283
-0.0437158
-0.0436065
-0.041969
-0.0388755
-0.0343081
-0.028155
-0.0205375
-0.0127019
-0.00785418
-0.0077475
-0.00245047
-0.00374208
-0.00669828
-0.0119127
-0.0190385
-0.0269798
-0.0345012
-0.0407755
-0.0454464
-0.0484721
-0.0499346
-0.0499259
-0.0485255
-0.0457841
-0.0416587
-0.0359237
-0.0283234
-0.0193696
-0.0118214
-0.00798006
-0.00553747
-0.00691494
-0.0102631
-0.0160209
-0.0236564
-0.0318868
-0.0394477
-0.0456084
-0.0501321
-0.0530516
-0.0544804
-0.0545206
-0.0532467
-0.0507204
-0.0469575
-0.0418083
-0.034865
-0.0259457
-0.0167079
-0.00999381
-0.0087334
-0.0100854
-0.0135969
-0.0195408
-0.0272842
-0.0354839
-0.0429079
-0.0489046
-0.0533034
-0.0561606
-0.0575842
-0.0576554
-0.0564374
-0.054005
-0.0504459
-0.0457562
-0.0396307
-0.0315215
-0.0223195
-0.0143387
-0.0115036
-0.0127573
-0.0162182
-0.0220526
-0.0296045
-0.037585
-0.0448218
-0.0506935
-0.055036
-0.0578867
-0.0593286
-0.0594202
-0.0582113
-0.0557821
-0.052281
-0.0478476
-0.0424274
-0.0353798
-0.0271959
-0.0191777
-0.0135487
-0.0146179
-0.0178547
-0.0233136
-0.0304282
-0.038059
-0.0451128
-0.0509437
-0.055322
-0.0582327
-0.05972
-0.0598224
-0.0585807
-0.0560761
-0.0525096
-0.0481333
-0.0432031
-0.0370535
-0.0300297
-0.0224154
-0.0148367
-0.015567
-0.0183506
-0.0232084
-0.0296906
-0.0368751
-0.0437598
-0.0496342
-0.054148
-0.0571933
-0.058762
-0.0588691
-0.0575502
-0.0549091
-0.0511714
-0.0466513
-0.041962
-0.0362976
-0.0302241
-0.0228942
-0.015467
-0.0157213
-0.0177761
-0.0217446
-0.0273872
-0.0340282
-0.040746
-0.046735
-0.0514864
-0.0547611
-0.0564746
-0.0566157
-0.0551945
-0.0523467
-0.048341
-0.0435778
-0.0387279
-0.0331395
-0.028098
-0.020278
-0.0155737
-0.0152974
-0.0163371
-0.0190864
-0.023651
-0.0296312
-0.0361678
-0.042331
-0.0474219
-0.0510331
-0.0529734
-0.0531768
-0.0516847
-0.048586
-0.0442224
-0.0390508
-0.0337799
-0.0280705
-0.0242307
-0.0143844
-0.0152761
-0.0145495
-0.0142601
-0.015425
-0.0186834
-0.0238925
-0.0302284
-0.0366109
-0.0421331
-0.0461958
-0.0484836
-0.0488607
-0.0473479
-0.0440165
-0.0392457
-0.0335169
-0.0276404
-0.0216293
-0.0180538
-0.00383334
-0.0146614
-0.0136177
-0.0117064
-0.0110806
-0.0129529
-0.017379
-0.023532
-0.0301676
-0.0361896
-0.0408072
-0.043574
-0.044257
-0.0428464
-0.039373
-0.034183
-0.0276888
-0.0206825
-0.0132773
-0.0067874
0.0160516
-0.0145828
-0.0126568
-0.0086483
-0.00623464
-0.00691001
-0.0107454
-0.0168167
-0.023738
-0.0302959
-0.0355359
-0.0388999
-0.0400313
-0.0388742
-0.0354454
-0.0298944
-0.0222757
-0.0128738
-0.00069032
0.0166924
0.0570618
-0.0117943
-0.0118305
-0.00572623
-0.00177546
-0.00176544
-0.00540486
-0.0115747
-0.0188137
-0.0258735
-0.0316848
-0.0356592
-0.0373587
-0.0366824
-0.0333532
-0.0272232
-0.0175419
-0.00314988
0.0204876
0.0607014
0.129819
-0.0295164
-0.0106296
-0.000609174
0.00308019
0.00244759
-0.00155737
-0.00799923
-0.0155524
-0.0229744
-0.0291713
-0.033529
-0.0355849
-0.0351984
-0.0319537
-0.0252266
-0.0128602
0.00942114
0.0511691
0.122875
0.226074
)
;

boundaryField
{
    movingWall
    {
        type            zeroGradient;
    }
    fixedWalls
    {
        type            zeroGradient;
    }
    frontAndBack
    {
        type            empty;
    }
}


// ************************************************************************* //
