/*--------------------------------*- C++ -*----------------------------------*\
| =========                 |                                                 |
| \\      /  F ield         | OpenFOAM: The Open Source CFD Toolbox           |
|  \\    /   O peration     | Version:  2212                                  |
|   \\  /    A nd           | Website:  www.openfoam.com                      |
|    \\/     M anipulation  |                                                 |
\*---------------------------------------------------------------------------*/
FoamFile
{
    version     2.0;
    format      ascii;
    arch        "LSB;label=32;scalar=64";
    class       surfaceScalarField;
    location    "9.5";
    object      phi;
}
// * * * * * * * * * * * * * * * * * * * * * * * * * * * * * * * * * * * * * //

dimensions      [0 3 -1 0 0 0 0];

oriented        oriented;

internalField   nonuniform List<scalar> 
760
(
1.56074e-07
-1.56118e-07
2.9361e-07
-1.37536e-07
3.09969e-07
-1.6359e-08
1.83659e-07
1.26309e-07
-1.20324e-07
3.03983e-07
-6.6593e-07
5.45606e-07
-1.48525e-06
8.19318e-07
-2.49081e-06
1.00556e-06
-3.48027e-06
9.8946e-07
-4.22026e-06
7.39989e-07
-4.54389e-06
3.23638e-07
-4.3536e-06
-1.90293e-07
-3.59375e-06
-7.59849e-07
-2.37902e-06
-1.21473e-06
-9.40091e-07
-1.43893e-06
3.47661e-07
-1.28775e-06
1.08986e-06
-7.42203e-07
1.03304e-06
5.68246e-08
4.60982e-07
5.72057e-07
4.60982e-07
1.25033e-07
-2.81151e-07
7.45812e-08
-8.70842e-08
-2.97052e-07
3.55274e-07
-1.07892e-06
9.08175e-07
-2.31591e-06
1.54098e-06
-3.92734e-06
2.15703e-06
-5.66219e-06
2.55417e-06
-7.20688e-06
2.55025e-06
-8.33677e-06
2.11935e-06
-8.94212e-06
1.34534e-06
-8.97606e-06
3.57578e-07
-8.41608e-06
-7.50264e-07
-7.29355e-06
-1.88238e-06
-5.642e-06
-2.86627e-06
-3.60583e-06
-3.4751e-06
-1.49028e-06
-3.4033e-06
1.78661e-07
-2.41115e-06
8.58939e-07
-6.23453e-07
5.25691e-07
9.05307e-07
9.86672e-07
-1.27612e-07
-1.53539e-07
-6.33945e-07
4.19248e-07
-1.62493e-06
1.34626e-06
-3.14144e-06
2.42469e-06
-5.05744e-06
3.45698e-06
-7.07324e-06
4.17283e-06
-8.87328e-06
4.35421e-06
-1.02775e-05
3.95448e-06
-1.12343e-05
3.0761e-06
-1.17358e-05
1.84688e-06
-1.17299e-05
3.51636e-07
-1.1271e-05
-1.20916e-06
-1.03383e-05
-2.81505e-06
-8.87771e-06
-4.32688e-06
-6.8695e-06
-5.48331e-06
-4.40319e-06
-5.86961e-06
-1.87875e-06
-4.93559e-06
-8.64241e-08
-2.41578e-06
2.94682e-07
5.24202e-07
1.28135e-06
-5.00529e-07
3.4699e-07
-1.55999e-06
1.4787e-06
-3.11947e-06
2.90574e-06
-5.08132e-06
4.38654e-06
-7.18516e-06
5.56082e-06
-9.12311e-06
6.11078e-06
-1.06929e-05
5.92402e-06
-1.18521e-05
5.11365e-06
-1.26287e-05
3.8527e-06
-1.30573e-05
2.27552e-06
-1.31224e-05
4.16692e-07
-1.28829e-05
-1.44865e-06
-1.23001e-05
-3.39783e-06
-1.12722e-05
-5.35474e-06
-9.6686e-06
-7.08696e-06
-7.36453e-06
-8.17368e-06
-4.39872e-06
-7.9014e-06
-1.37807e-06
-5.43643e-06
1.20725e-07
-9.74591e-07
1.40208e-06
-8.6194e-07
1.20893e-06
-2.36169e-06
2.97846e-06
-4.23275e-06
4.7768e-06
-6.28007e-06
6.43386e-06
-8.22245e-06
7.50319e-06
-9.83715e-06
7.72548e-06
-1.10475e-05
7.1344e-06
-1.18801e-05
5.94624e-06
-1.23967e-05
4.36928e-06
-1.26699e-05
2.54871e-06
-1.27905e-05
5.37278e-07
-1.27448e-05
-1.49427e-06
-1.25242e-05
-3.61846e-06
-1.20497e-05
-5.82928e-06
-1.1135e-05
-8.00161e-06
-9.49232e-06
-9.81638e-06
-6.82213e-06
-1.05716e-05
-3.22297e-06
-9.03559e-06
-2.61177e-07
-3.93638e-06
1.1409e-06
-1.08709e-06
2.29602e-06
-2.7846e-06
4.67597e-06
-4.67838e-06
6.67058e-06
-6.53642e-06
8.29191e-06
-8.13439e-06
9.10116e-06
-9.34127e-06
8.93237e-06
-1.01531e-05
7.9462e-06
-1.06349e-05
6.42807e-06
-1.0877e-05
4.61134e-06
-1.09789e-05
2.65066e-06
-1.10621e-05
6.20476e-07
-1.11127e-05
-1.44371e-06
-1.11468e-05
-3.5843e-06
-1.11357e-05
-5.84038e-06
-1.09261e-05
-8.21128e-06
-1.01909e-05
-1.05515e-05
-8.43589e-06
-1.23266e-05
-5.24495e-06
-1.22265e-05
-1.15866e-06
-8.02267e-06
-1.77542e-08
-1.1112e-06
3.40721e-06
-2.75928e-06
6.32405e-06
-4.45724e-06
8.36854e-06
-5.99327e-06
9.82794e-06
-7.20726e-06
1.03151e-05
-8.03689e-06
9.762e-06
-8.51995e-06
8.42926e-06
-8.74341e-06
6.65153e-06
-8.81073e-06
4.67866e-06
-8.81862e-06
2.65854e-06
-8.84916e-06
6.51013e-07
-8.92052e-06
-1.37235e-06
-9.05266e-06
-3.45215e-06
-9.25725e-06
-5.63579e-06
-9.47831e-06
-7.99022e-06
-9.48506e-06
-1.05448e-05
-8.75882e-06
-1.30528e-05
-6.5411e-06
-1.44443e-05
-2.42491e-06
-1.21389e-05
-2.44266e-06
-9.36579e-07
4.34379e-06
-2.34889e-06
7.73637e-06
-3.73681e-06
9.75646e-06
-4.91682e-06
1.1008e-05
-5.788e-06
1.11863e-05
-6.33355e-06
1.03076e-05
-6.61067e-06
8.70638e-06
-6.71036e-06
6.75122e-06
-6.72844e-06
4.69675e-06
-6.73762e-06
2.66772e-06
-6.77322e-06
6.86618e-07
-6.85204e-06
-1.29353e-06
-6.99499e-06
-3.3092e-06
-7.23272e-06
-5.39806e-06
-7.58283e-06
-7.64011e-06
-7.95533e-06
-1.01723e-05
-7.94118e-06
-1.3067e-05
-6.7224e-06
-1.5663e-05
-3.58975e-06
-1.52715e-05
-6.03241e-06
-6.26022e-07
4.96981e-06
-1.68966e-06
8.8e-06
-2.72387e-06
1.07907e-05
-3.56404e-06
1.18481e-05
-4.15466e-06
1.1777e-05
-4.50594e-06
1.06588e-05
-4.6768e-06
8.87724e-06
-4.74557e-06
6.81998e-06
-4.78434e-06
4.73552e-06
-4.83633e-06
2.71971e-06
-4.91135e-06
7.61635e-07
-5.01555e-06
-1.18932e-06
-5.1587e-06
-3.16606e-06
-5.36931e-06
-5.18744e-06
-5.70256e-06
-7.30686e-06
-6.17263e-06
-9.70222e-06
-6.56283e-06
-1.26768e-05
-6.1328e-06
-1.60931e-05
-3.92701e-06
-1.74773e-05
-9.95941e-06
-2.3325e-07
5.20306e-06
-8.94969e-07
9.46172e-06
-1.5675e-06
1.14632e-05
-2.09801e-06
1.23786e-05
-2.45887e-06
1.21378e-05
-2.67438e-06
1.08743e-05
-2.79273e-06
8.99559e-06
-2.86713e-06
6.89438e-06
-2.94203e-06
4.81042e-06
-3.03923e-06
2.81691e-06
-3.16145e-06
8.8385e-07
-3.30815e-06
-1.04262e-06
-3.47937e-06
-2.99484e-06
-3.68716e-06
-4.97966e-06
-3.98183e-06
-7.01218e-06
-4.44586e-06
-9.23819e-06
-5.02791e-06
-1.20948e-05
-5.12727e-06
-1.59937e-05
-3.56069e-06
-1.90439e-05
-1.35201e-05
1.63762e-07
5.0393e-06
-7.04427e-08
9.69593e-06
-4.039e-07
1.17967e-05
-6.5542e-07
1.26302e-05
-8.10937e-07
1.22933e-05
-9.01592e-07
1.0965e-05
-9.66741e-07
9.06074e-06
-1.03824e-06
6.96588e-06
-1.13262e-06
4.9048e-06
-1.25764e-06
2.94193e-06
-1.41587e-06
1.04209e-06
-1.60946e-06
-8.49035e-07
-1.8368e-06
-2.76749e-06
-2.09553e-06
-4.72094e-06
-2.4128e-06
-6.69491e-06
-2.87999e-06
-8.771e-06
-3.56267e-06
-1.14121e-05
-4.02711e-06
-1.55293e-05
-3.02684e-06
-2.00442e-05
-1.65469e-05
5.02459e-07
4.53684e-06
7.00693e-07
9.49769e-06
7.44092e-07
1.17533e-05
7.79843e-07
1.25944e-05
8.24807e-07
1.22484e-05
8.53682e-07
1.09361e-05
8.46832e-07
9.06759e-06
7.96073e-07
7.01664e-06
7.02204e-07
4.99867e-06
5.66916e-07
3.07722e-06
3.84977e-07
1.22403e-06
1.50195e-07
-6.14253e-07
-1.3897e-07
-2.47833e-06
-4.89157e-07
-4.37075e-06
-9.03884e-07
-6.28019e-06
-1.42651e-06
-8.24837e-06
-2.20455e-06
-1.0634e-05
-2.95403e-06
-1.47798e-05
-2.46097e-06
-2.05372e-05
-1.90079e-05
7.59743e-07
3.7771e-06
1.35951e-06
8.89793e-06
1.75398e-06
1.13588e-05
2.08503e-06
1.22633e-05
2.35957e-06
1.19738e-05
2.54746e-06
1.07482e-05
2.64065e-06
8.97441e-06
2.64982e-06
7.00746e-06
2.58894e-06
5.05954e-06
2.46434e-06
3.20183e-06
2.26835e-06
1.42002e-06
1.98688e-06
-3.32785e-07
1.62061e-06
-2.11206e-06
1.16467e-06
-3.91481e-06
6.14822e-07
-5.73034e-06
-8.0011e-08
-7.55353e-06
-9.5376e-07
-9.76029e-06
-1.91689e-06
-1.38166e-05
-1.92417e-06
-2.05299e-05
-2.09321e-05
8.75489e-07
2.90161e-06
1.81894e-06
7.95448e-06
2.56397e-06
1.06137e-05
3.20803e-06
1.16193e-05
3.7586e-06
1.14233e-05
4.17249e-06
1.03343e-05
4.43388e-06
8.71301e-06
4.55673e-06
6.88461e-06
4.56383e-06
5.05245e-06
4.47013e-06
3.29552e-06
4.2734e-06
1.61675e-06
3.94097e-06
-3.52845e-10
3.49365e-06
-1.66474e-06
2.90581e-06
-3.32697e-06
2.17874e-06
-5.00327e-06
1.33164e-06
-6.70644e-06
2.74212e-07
-8.70286e-06
-9.5325e-07
-1.25892e-05
-1.42493e-06
-2.00582e-05
-2.2357e-05
8.1137e-07
2.09024e-06
1.9649e-06
6.80095e-06
3.0125e-06
9.56614e-06
3.99052e-06
1.06413e-05
4.87206e-06
1.05417e-05
5.59112e-06
9.61528e-06
6.10862e-06
8.19552e-06
6.42748e-06
6.56575e-06
6.5684e-06
4.91152e-06
6.54919e-06
3.31474e-06
6.36794e-06
1.79799e-06
6.02198e-06
3.4561e-07
5.47822e-06
-1.12098e-06
4.74419e-06
-2.59294e-06
3.8121e-06
-4.07118e-06
2.711e-06
-5.60534e-06
1.40155e-06
-7.39341e-06
-1.49012e-07
-1.10386e-05
-9.09102e-07
-1.92982e-05
-2.32661e-05
5.81406e-07
1.50883e-06
1.77014e-06
5.61222e-06
3.11524e-06
8.22104e-06
4.47287e-06
9.28364e-06
5.74555e-06
9.26906e-06
6.83465e-06
8.52617e-06
7.67479e-06
7.35538e-06
8.25323e-06
5.9873e-06
8.58223e-06
4.58252e-06
8.67836e-06
3.21862e-06
8.5482e-06
1.92815e-06
8.18884e-06
7.04964e-07
7.55615e-06
-4.88285e-07
6.66759e-06
-1.70438e-06
5.51055e-06
-2.91414e-06
4.12608e-06
-4.22088e-06
2.58828e-06
-5.8556e-06
9.6892e-07
-9.41927e-06
-1.38994e-07
-1.81902e-05
-2.34051e-05
1.54305e-07
1.35453e-06
1.04858e-06
4.71794e-06
2.53333e-06
6.7363e-06
4.26335e-06
7.55362e-06
5.99327e-06
7.53913e-06
7.53533e-06
6.98411e-06
8.78683e-06
6.10389e-06
9.71792e-06
5.05621e-06
1.03236e-05
3.97682e-06
1.06152e-05
2.92702e-06
1.05986e-05
1.94476e-06
1.02793e-05
1.02429e-06
9.61085e-06
1.80146e-07
8.61596e-06
-7.09487e-07
7.28434e-06
-1.58252e-06
5.66824e-06
-2.60477e-06
3.92887e-06
-4.11624e-06
2.25056e-06
-7.74096e-06
6.56877e-07
-1.65966e-05
-2.27482e-05
-5.19129e-07
1.87366e-06
2.03693e-07
3.99511e-06
1.76777e-06
5.17222e-06
3.84126e-06
5.48014e-06
6.00689e-06
5.37349e-06
7.97765e-06
5.01335e-06
9.6169e-06
4.46464e-06
1.0883e-05
3.79009e-06
1.17585e-05
3.10139e-06
1.22593e-05
2.4262e-06
1.23889e-05
1.81515e-06
1.2167e-05
1.24619e-06
1.16178e-05
7.29298e-07
1.07117e-05
1.96692e-07
9.45321e-06
-3.2408e-07
7.91631e-06
-1.06786e-06
6.28684e-06
-2.48677e-06
4.4667e-06
-5.92082e-06
2.05971e-06
-1.41896e-05
-2.06885e-05
-4.18155e-06
6.05521e-06
-3.64414e-06
3.4577e-06
-1.24384e-06
2.77192e-06
1.56255e-06
2.67375e-06
4.31105e-06
2.625e-06
6.85458e-06
2.46982e-06
9.07942e-06
2.23979e-06
1.09251e-05
1.94443e-06
1.23729e-05
1.65353e-06
1.34499e-05
1.34924e-06
1.4173e-05
1.09209e-06
1.45869e-05
8.32257e-07
1.46793e-05
6.36922e-07
1.4459e-05
4.16939e-07
1.39222e-05
2.12705e-07
1.30848e-05
-2.30418e-07
1.19346e-05
-1.33654e-06
1.01167e-05
-4.1029e-06
5.63957e-06
-9.71249e-06
-1.5049e-05
6.05521e-06
9.51291e-06
1.22848e-05
1.49586e-05
1.75836e-05
2.00534e-05
2.22932e-05
2.42376e-05
2.58912e-05
2.72404e-05
2.83325e-05
2.91647e-05
2.98017e-05
3.02186e-05
3.04313e-05
3.02009e-05
2.88644e-05
2.47614e-05
1.5049e-05
)
;

boundaryField
{
    movingWall
    {
        type            calculated;
        value           uniform 0;
    }
    fixedWalls
    {
        type            calculated;
        value           uniform 0;
    }
    frontAndBack
    {
        type            empty;
        value           nonuniform List<scalar> 0();
    }
}


// ************************************************************************* //
