/*--------------------------------*- C++ -*----------------------------------*\
| =========                 |                                                 |
| \\      /  F ield         | OpenFOAM: The Open Source CFD Toolbox           |
|  \\    /   O peration     | Version:  2212                                  |
|   \\  /    A nd           | Website:  www.openfoam.com                      |
|    \\/     M anipulation  |                                                 |
\*---------------------------------------------------------------------------*/
FoamFile
{
    version     2.0;
    format      ascii;
    arch        "LSB;label=32;scalar=64";
    class       volScalarField;
    location    "15.2";
    object      p;
}
// * * * * * * * * * * * * * * * * * * * * * * * * * * * * * * * * * * * * * //

dimensions      [0 2 -2 0 0 0 0];

internalField   nonuniform List<scalar> 
400
(
1.24248e-07
-0.000150904
-0.000534989
-0.00107219
-0.00173292
-0.00249441
-0.00318554
-0.00359812
-0.00356589
-0.00293462
-0.00154906
0.0006189
0.00324913
0.00551364
0.00653331
0.0059224
0.00400156
0.00214912
0.00111012
0.00104106
0.00011598
-5.84381e-05
-0.000377384
-0.00076456
-0.00124448
-0.00188861
-0.00270674
-0.00354408
-0.00408057
-0.00393899
-0.00284699
-0.000825388
0.00168888
0.00396045
0.00512423
0.0047426
0.00310247
0.00137422
0.000592625
0.000683671
0.000536096
0.000264625
-7.76675e-05
-0.000560027
-0.00134774
-0.00258115
-0.00421973
-0.00598443
-0.00740325
-0.00794457
-0.00726487
-0.00546265
-0.00289226
-0.000195233
0.00179118
0.00242717
0.00170822
0.000501514
-0.000396678
-0.000393384
0.00115161
0.000740922
0.000191531
-0.000775212
-0.00245162
-0.00493844
-0.00799585
-0.0111213
-0.0137042
-0.0151778
-0.0152076
-0.0138407
-0.0112944
-0.00802982
-0.00475298
-0.00221048
-0.000871163
-0.000707005
-0.00128962
-0.00191894
0.00158301
0.000973405
-2.32285e-05
-0.00192454
-0.00500725
-0.0091808
-0.0139145
-0.0184807
-0.0222171
-0.0246538
-0.0255295
-0.0247237
-0.0223643
-0.0187443
-0.0143054
-0.00965649
-0.0055929
-0.00294969
-0.00219405
-0.00401877
0.00129307
0.000444716
-0.00119772
-0.00430489
-0.0090057
-0.0148814
-0.0210737
-0.0267163
-0.0311923
-0.0341796
-0.0355464
-0.0351904
-0.0331978
-0.0297195
-0.0249002
-0.0189617
-0.0125061
-0.00694914
-0.00440168
-0.00652499
-4.86076e-05
-0.00114788
-0.00349987
-0.0077974
-0.0139333
-0.0211153
-0.0282372
-0.0344088
-0.0391298
-0.0422332
-0.0437209
-0.0436116
-0.0419737
-0.0388797
-0.0343117
-0.0281579
-0.0205398
-0.0127036
-0.00785556
-0.00774874
-0.0024508
-0.00374253
-0.00669905
-0.011914
-0.0190407
-0.0269828
-0.0345052
-0.0407804
-0.0454521
-0.0484783
-0.0499411
-0.0499323
-0.0485315
-0.0457895
-0.0416633
-0.0359275
-0.0283264
-0.0193718
-0.011823
-0.00798125
-0.00553799
-0.0069156
-0.0102642
-0.0160226
-0.023659
-0.0318906
-0.0394525
-0.0456143
-0.0501389
-0.0530591
-0.0544882
-0.0545283
-0.053254
-0.050727
-0.0469632
-0.041813
-0.0348687
-0.0259485
-0.0167099
-0.00999524
-0.00873414
-0.0100863
-0.0135982
-0.0195429
-0.0272873
-0.0354882
-0.0429134
-0.0489112
-0.053311
-0.056169
-0.057593
-0.0576642
-0.0564458
-0.0540125
-0.0504524
-0.0457615
-0.039635
-0.0315248
-0.022322
-0.0143406
-0.0115045
-0.0127583
-0.0162198
-0.022055
-0.0296079
-0.0375897
-0.0448277
-0.0507007
-0.0550442
-0.0578957
-0.0593381
-0.0594296
-0.0582203
-0.0557903
-0.052288
-0.0478534
-0.042432
-0.0353834
-0.0271987
-0.0191801
-0.0135497
-0.0146191
-0.0178564
-0.023316
-0.0304317
-0.0380637
-0.0451188
-0.0509509
-0.0553304
-0.0582419
-0.0597296
-0.059832
-0.0585899
-0.0560844
-0.0525167
-0.0481391
-0.0432077
-0.0370571
-0.0300326
-0.0224179
-0.0148377
-0.0155682
-0.0183523
-0.0232107
-0.029694
-0.0368796
-0.0437655
-0.0496412
-0.0541561
-0.0572022
-0.0587713
-0.0588784
-0.0575591
-0.054917
-0.0511781
-0.0466567
-0.0419662
-0.0363007
-0.0302267
-0.0228965
-0.0154681
-0.0157224
-0.0177776
-0.0217467
-0.0273901
-0.0340322
-0.0407512
-0.0467414
-0.0514939
-0.0547693
-0.0564833
-0.0566243
-0.0552026
-0.0523539
-0.0483469
-0.0435824
-0.0387312
-0.0331419
-0.0281
-0.0202797
-0.0155746
-0.0152984
-0.0163383
-0.0190881
-0.0236534
-0.0296346
-0.0361721
-0.0423365
-0.0474284
-0.0510403
-0.0529811
-0.0531844
-0.0516918
-0.0485921
-0.0442273
-0.0390543
-0.0337822
-0.0280719
-0.0242318
-0.0143852
-0.015277
-0.0145504
-0.014261
-0.0154262
-0.0186851
-0.023895
-0.0302318
-0.0366153
-0.0421385
-0.0462019
-0.0484901
-0.0488671
-0.0473538
-0.0440215
-0.0392494
-0.0335193
-0.0276415
-0.0216295
-0.0180537
-0.00383306
-0.0146623
-0.0136184
-0.0117071
-0.0110813
-0.0129539
-0.0173806
-0.0235344
-0.0301709
-0.0361938
-0.0408121
-0.0435793
-0.0442623
-0.0428512
-0.0393769
-0.0341856
-0.02769
-0.0206824
-0.0132763
-0.00678583
0.0160529
-0.0145834
-0.0126574
-0.00864866
-0.00623479
-0.00691026
-0.010746
-0.0168181
-0.0237403
-0.0302991
-0.0355398
-0.0389042
-0.0400356
-0.0388781
-0.0354484
-0.0298962
-0.022276
-0.0128727
-0.000688156
0.0166951
0.0570639
-0.0117948
-0.0118309
-0.00572628
-0.00177517
-0.00176515
-0.00540491
-0.0115754
-0.0188152
-0.0258759
-0.0316879
-0.0356628
-0.0373624
-0.0366857
-0.0333557
-0.0272245
-0.0175417
-0.00314828
0.0204903
0.0607044
0.129821
-0.029517
-0.0106299
-0.000609029
0.00308067
0.0024481
-0.00155718
-0.00799967
-0.0155537
-0.0229765
-0.0291742
-0.0335323
-0.0355884
-0.0352016
-0.0319561
-0.0252279
-0.0128602
0.00942257
0.0511715
0.122878
0.226076
)
;

boundaryField
{
    movingWall
    {
        type            zeroGradient;
    }
    fixedWalls
    {
        type            zeroGradient;
    }
    frontAndBack
    {
        type            empty;
    }
}


// ************************************************************************* //
