/*--------------------------------*- C++ -*----------------------------------*\
| =========                 |                                                 |
| \\      /  F ield         | OpenFOAM: The Open Source CFD Toolbox           |
|  \\    /   O peration     | Version:  2212                                  |
|   \\  /    A nd           | Website:  www.openfoam.com                      |
|    \\/     M anipulation  |                                                 |
\*---------------------------------------------------------------------------*/
FoamFile
{
    version     2.0;
    format      ascii;
    arch        "LSB;label=32;scalar=64";
    class       volScalarField;
    location    "12.2";
    object      p;
}
// * * * * * * * * * * * * * * * * * * * * * * * * * * * * * * * * * * * * * //

dimensions      [0 2 -2 0 0 0 0];

internalField   nonuniform List<scalar> 
400
(
3.835e-07
-0.00015062
-0.000534703
-0.00107191
-0.00173263
-0.00249412
-0.00318525
-0.00359782
-0.00356559
-0.00293432
-0.00154877
0.000619191
0.00324942
0.00551393
0.00653361
0.00592272
0.00400191
0.00214948
0.00111047
0.00104142
0.000116266
-5.81503e-05
-0.000377097
-0.000764273
-0.00124419
-0.00188832
-0.00270645
-0.00354378
-0.00408028
-0.00393869
-0.00284668
-0.00082509
0.00168918
0.00396075
0.00512454
0.00474293
0.00310282
0.00137458
0.000592984
0.000684026
0.000536385
0.000264914
-7.73795e-05
-0.00055974
-0.00134745
-0.00258085
-0.00421943
-0.00598412
-0.00740293
-0.00794424
-0.00726454
-0.00546232
-0.00289194
-0.000194917
0.0017915
0.00242751
0.00170858
0.000501876
-0.000396316
-0.000393026
0.0011519
0.000741212
0.000191821
-0.000774922
-0.00245133
-0.00493813
-0.00799552
-0.0111209
-0.0137038
-0.0151774
-0.0152073
-0.0138403
-0.011294
-0.00802946
-0.00475263
-0.00221012
-0.000870803
-0.000706643
-0.00128926
-0.00191858
0.0015833
0.000973693
-2.29372e-05
-0.00192424
-0.00500694
-0.00918046
-0.0139142
-0.0184802
-0.0222166
-0.0246534
-0.025529
-0.0247233
-0.0223638
-0.0187438
-0.014305
-0.0096561
-0.00559253
-0.00294933
-0.00219369
-0.00401841
0.00129336
0.000445002
-0.00119743
-0.00430458
-0.00900535
-0.014881
-0.0210732
-0.0267158
-0.0311917
-0.034179
-0.0355458
-0.0351898
-0.0331972
-0.029719
-0.0248997
-0.0189613
-0.0125056
-0.00694876
-0.00440131
-0.00652462
-4.8323e-05
-0.00114759
-0.00349957
-0.00779707
-0.0139329
-0.0211148
-0.0282367
-0.0344082
-0.0391292
-0.0422325
-0.0437202
-0.0436108
-0.041973
-0.038879
-0.0343111
-0.0281574
-0.0205393
-0.0127032
-0.00785518
-0.00774838
-0.00245051
-0.00374223
-0.00669873
-0.0119136
-0.0190402
-0.0269823
-0.0345046
-0.0407797
-0.0454513
-0.0484775
-0.0499402
-0.0499315
-0.0485307
-0.0457887
-0.0416626
-0.0359269
-0.0283259
-0.0193713
-0.0118226
-0.00798089
-0.00553769
-0.00691529
-0.0102638
-0.0160222
-0.0236586
-0.03189
-0.0394518
-0.0456135
-0.050138
-0.0530581
-0.0544873
-0.0545274
-0.0532531
-0.0507261
-0.0469624
-0.0418123
-0.0348681
-0.025948
-0.0167094
-0.00999486
-0.00873382
-0.010086
-0.0135978
-0.0195424
-0.0272867
-0.0354876
-0.0429126
-0.0489103
-0.05331
-0.056168
-0.0575919
-0.0576632
-0.0564447
-0.0540116
-0.0504515
-0.0457607
-0.0396343
-0.0315243
-0.0223215
-0.0143402
-0.0115042
-0.012758
-0.0162194
-0.0220545
-0.0296074
-0.037589
-0.0448269
-0.0506997
-0.0550432
-0.0578947
-0.059337
-0.0594285
-0.0582192
-0.0557893
-0.0522871
-0.0478526
-0.0424313
-0.0353829
-0.0271982
-0.0191796
-0.0135494
-0.0146187
-0.017856
-0.0233156
-0.0304311
-0.038063
-0.045118
-0.05095
-0.0553294
-0.0582408
-0.0597285
-0.0598309
-0.0585888
-0.0560834
-0.0525158
-0.0481383
-0.043207
-0.0370565
-0.0300321
-0.0224174
-0.0148374
-0.0155679
-0.0183519
-0.0232103
-0.0296934
-0.0368789
-0.0437648
-0.0496403
-0.0541551
-0.0572012
-0.0587702
-0.0588773
-0.057558
-0.054916
-0.0511773
-0.0466559
-0.0419655
-0.0363002
-0.0302262
-0.022896
-0.0154677
-0.015722
-0.0177772
-0.0217463
-0.0273896
-0.0340316
-0.0407505
-0.0467406
-0.0514929
-0.0547683
-0.0564822
-0.0566232
-0.0552016
-0.0523529
-0.0483461
-0.0435818
-0.0387306
-0.0331414
-0.0280996
-0.0202793
-0.0155743
-0.0152981
-0.016338
-0.0190877
-0.023653
-0.029634
-0.0361715
-0.0423358
-0.0474276
-0.0510394
-0.0529801
-0.0531834
-0.0516909
-0.0485913
-0.0442266
-0.0390538
-0.0337817
-0.0280715
-0.0242315
-0.0143849
-0.0152767
-0.01455
-0.0142607
-0.0154258
-0.0186847
-0.0238945
-0.0302313
-0.0366146
-0.0421377
-0.0462011
-0.0484893
-0.0488663
-0.047353
-0.0440208
-0.0392488
-0.0335188
-0.0276411
-0.0216292
-0.0180534
-0.00383284
-0.0146619
-0.0136181
-0.0117068
-0.011081
-0.0129535
-0.0173802
-0.0235339
-0.0301703
-0.0361932
-0.0408114
-0.0435786
-0.0442616
-0.0428505
-0.0393763
-0.0341852
-0.0276896
-0.0206822
-0.0132761
-0.00678572
0.016053
-0.0145831
-0.0126571
-0.00864838
-0.00623453
-0.00690999
-0.0107457
-0.0168178
-0.0237399
-0.0302985
-0.0355392
-0.0389035
-0.040035
-0.0388775
-0.0354479
-0.0298958
-0.0222757
-0.0128725
-0.000688109
0.0166951
0.0570639
-0.0117945
-0.0118306
-0.00572602
-0.00177495
-0.00176493
-0.00540466
-0.0115751
-0.0188148
-0.0258755
-0.0316874
-0.0356622
-0.0373618
-0.0366852
-0.0333552
-0.0272241
-0.0175415
-0.00314818
0.0204903
0.0607044
0.129821
-0.0295167
-0.0106296
-0.000608789
0.00308088
0.00244831
-0.00155695
-0.00799939
-0.0155533
-0.0229761
-0.0291737
-0.0335318
-0.0355879
-0.0352011
-0.0319557
-0.0252275
-0.0128599
0.00942268
0.0511716
0.122878
0.226076
)
;

boundaryField
{
    movingWall
    {
        type            zeroGradient;
    }
    fixedWalls
    {
        type            zeroGradient;
    }
    frontAndBack
    {
        type            empty;
    }
}


// ************************************************************************* //
