/*--------------------------------*- C++ -*----------------------------------*\
| =========                 |                                                 |
| \\      /  F ield         | OpenFOAM: The Open Source CFD Toolbox           |
|  \\    /   O peration     | Version:  2212                                  |
|   \\  /    A nd           | Website:  www.openfoam.com                      |
|    \\/     M anipulation  |                                                 |
\*---------------------------------------------------------------------------*/
FoamFile
{
    version     2.0;
    format      ascii;
    arch        "LSB;label=32;scalar=64";
    class       volVectorField;
    location    "12.2";
    object      U;
}
// * * * * * * * * * * * * * * * * * * * * * * * * * * * * * * * * * * * * * //

dimensions      [0 1 -1 0 0 0 0];

internalField   nonuniform List<vector> 
400
(
(0.00168187 -0.00168372 0)
(0.00483887 -0.00189224 0)
(0.00659134 -0.00120073 0)
(0.00567502 -0.000575139 0)
(0.00157239 0.000183968 0)
(-0.00682908 0.00173938 0)
(-0.0206084 0.00478645 0)
(-0.0395419 0.0087363 0)
(-0.0608125 0.0112929 0)
(-0.0791394 0.0105127 0)
(-0.0898146 0.00677449 0)
(-0.0904648 0.00166882 0)
(-0.0802269 -0.00361675 0)
(-0.059994 -0.00827525 0)
(-0.0335203 -0.0108474 0)
(-0.00529162 -0.00979539 0)
(0.016725 -0.00477291 0)
(0.0244716 0.00277711 0)
(0.0161792 0.00647248 0)
(0.00431661 0.00471725 0)
(0.0017206 -0.00506524 0)
(0.00316294 -0.00403256 0)
(-0.00041675 0.00058772 0)
(-0.0113297 0.00644176 0)
(-0.0314263 0.0140504 0)
(-0.0611511 0.0237747 0)
(-0.0968491 0.0330628 0)
(-0.131463 0.0370939 0)
(-0.158977 0.0335183 0)
(-0.176109 0.0234017 0)
(-0.181456 0.00910905 0)
(-0.175084 -0.0069908 0)
(-0.157565 -0.0231754 0)
(-0.129653 -0.0369156 0)
(-0.0936156 -0.044567 0)
(-0.0521943 -0.0418397 0)
(-0.0113992 -0.0263343 0)
(0.0168908 -0.0012784 0)
(0.0178728 0.0162246 0)
(0.00554234 0.0148204 0)
(-0.000239491 -0.00578076 0)
(-0.005381 0.000801468 0)
(-0.0196096 0.0142996 0)
(-0.0445051 0.0312371 0)
(-0.0803439 0.0494477 0)
(-0.122209 0.0643235 0)
(-0.162357 0.0705496 0)
(-0.195281 0.0660313 0)
(-0.218875 0.0521927 0)
(-0.232543 0.0315344 0)
(-0.236299 0.0064157 0)
(-0.230813 -0.0211152 0)
(-0.216398 -0.0488759 0)
(-0.192551 -0.0732304 0)
(-0.159012 -0.0890302 0)
(-0.115745 -0.0892324 0)
(-0.0645643 -0.0670301 0)
(-0.0138208 -0.0226638 0)
(0.00948189 0.0179198 0)
(0.00415547 0.023581 0)
(-0.00347201 0.000452821 0)
(-0.0175154 0.0172406 0)
(-0.0435181 0.0415026 0)
(-0.0796866 0.0681985 0)
(-0.122967 0.0911662 0)
(-0.165863 0.103855 0)
(-0.201937 0.102909 0)
(-0.229262 0.0896758 0)
(-0.248103 0.0673287 0)
(-0.259058 0.0385804 0)
(-0.262966 0.00531636 0)
(-0.260633 -0.0311201 0)
(-0.251999 -0.0684598 0)
(-0.236019 -0.10375 0)
(-0.210705 -0.131497 0)
(-0.173355 -0.142897 0)
(-0.121407 -0.125769 0)
(-0.0568461 -0.0708537 0)
(-0.000986651 0.00356779 0)
(0.00474231 0.0282418 0)
(-0.00666313 0.014783 0)
(-0.0287318 0.0441131 0)
(-0.0632948 0.0771003 0)
(-0.10447 0.108929 0)
(-0.147294 0.13122 0)
(-0.184598 0.138208 0)
(-0.212939 0.129514 0)
(-0.232725 0.108754 0)
(-0.245243 0.0798021 0)
(-0.25222 0.0454492 0)
(-0.25534 0.00723927 0)
(-0.255521 -0.0340015 0)
(-0.252541 -0.0770895 0)
(-0.245857 -0.120695 0)
(-0.23266 -0.160833 0)
(-0.208335 -0.189043 0)
(-0.16683 -0.189991 0)
(-0.103455 -0.142885 0)
(-0.0221828 -0.0388531 0)
(0.00738229 0.0271027 0)
(-0.00851169 0.0348754 0)
(-0.035181 0.0766451 0)
(-0.0731008 0.114965 0)
(-0.113277 0.147718 0)
(-0.150545 0.166053 0)
(-0.179412 0.165989 0)
(-0.19894 0.149777 0)
(-0.210688 0.122516 0)
(-0.216639 0.0885522 0)
(-0.219272 0.0508732 0)
(-0.220541 0.0109545 0)
(-0.221442 -0.0307618 0)
(-0.222173 -0.0747279 0)
(-0.222845 -0.121301 0)
(-0.22127 -0.169249 0)
(-0.212366 -0.213081 0)
(-0.188044 -0.238608 0)
(-0.1397 -0.218557 0)
(-0.0628541 -0.118949 0)
(0.00584976 0.0142045 0)
(-0.0082941 0.0570106 0)
(-0.0353471 0.110022 0)
(-0.0718475 0.150514 0)
(-0.107093 0.18121 0)
(-0.136733 0.193906 0)
(-0.157143 0.18651 0)
(-0.169056 0.163345 0)
(-0.174597 0.130558 0)
(-0.176173 0.0929101 0)
(-0.176273 0.0534136 0)
(-0.176388 0.0133139 0)
(-0.177188 -0.027315 0)
(-0.179219 -0.0695858 0)
(-0.183026 -0.114741 0)
(-0.187972 -0.163875 0)
(-0.19044 -0.215844 0)
(-0.18255 -0.261695 0)
(-0.154297 -0.275211 0)
(-0.0994131 -0.205931 0)
(-0.00890857 -0.0146248 0)
(-0.00613697 0.0776101 0)
(-0.0297987 0.140579 0)
(-0.0614396 0.181256 0)
(-0.0899156 0.208376 0)
(-0.11193 0.214967 0)
(-0.12547 0.20064 0)
(-0.132163 0.171406 0)
(-0.134317 0.134241 0)
(-0.134382 0.0941229 0)
(-0.134284 0.0537554 0)
(-0.134692 0.0138632 0)
(-0.135785 -0.0258939 0)
(-0.138016 -0.0664939 0)
(-0.142078 -0.109115 0)
(-0.148589 -0.155705 0)
(-0.156251 -0.20862 0)
(-0.159104 -0.265944 0)
(-0.146772 -0.308178 0)
(-0.112271 -0.277246 0)
(-0.0309703 -0.0753459 0)
(-0.00273101 0.093633 0)
(-0.0204244 0.165675 0)
(-0.0451651 0.205652 0)
(-0.0663654 0.228649 0)
(-0.081638 0.229612 0)
(-0.0901318 0.209624 0)
(-0.0937669 0.175871 0)
(-0.0946817 0.135832 0)
(-0.0949616 0.0944831 0)
(-0.0957589 0.0540375 0)
(-0.0971098 0.0145943 0)
(-0.0989199 -0.0245902 0)
(-0.101356 -0.0642455 0)
(-0.104921 -0.105021 0)
(-0.110765 -0.148505 0)
(-0.119624 -0.198625 0)
(-0.128374 -0.259852 0)
(-0.126544 -0.323512 0)
(-0.107495 -0.334814 0)
(-0.0373554 -0.163465 0)
(0.0012193 0.102782 0)
(-0.00894666 0.183521 0)
(-0.0256534 0.223211 0)
(-0.0396561 0.242836 0)
(-0.0491384 0.239603 0)
(-0.0540135 0.215629 0)
(-0.0559852 0.178872 0)
(-0.0567 0.137173 0)
(-0.0576626 0.0954157 0)
(-0.0594059 0.055278 0)
(-0.0616996 0.0163109 0)
(-0.0644003 -0.0224966 0)
(-0.0674989 -0.0617502 0)
(-0.0711736 -0.101648 0)
(-0.0763564 -0.142858 0)
(-0.084617 -0.189002 0)
(-0.0960826 -0.248421 0)
(-0.100663 -0.324381 0)
(-0.0951829 -0.372283 0)
(-0.0309265 -0.242622 0)
(0.00511925 0.103949 0)
(0.00295741 0.193124 0)
(-0.00539198 0.233708 0)
(-0.0125106 0.250871 0)
(-0.0169028 0.244788 0)
(-0.0187909 0.21857 0)
(-0.0194802 0.180508 0)
(-0.0200095 0.138431 0)
(-0.0213086 0.0969713 0)
(-0.023545 0.0574292 0)
(-0.0264342 0.0190834 0)
(-0.0299179 -0.0191711 0)
(-0.0340126 -0.0579883 0)
(-0.0386563 -0.0974188 0)
(-0.0443947 -0.137379 0)
(-0.052454 -0.180251 0)
(-0.0657697 -0.235723 0)
(-0.0742269 -0.31816 0)
(-0.0812036 -0.396789 0)
(-0.0229436 -0.307184 0)
(0.00845929 0.0974745 0)
(0.0142233 0.194117 0)
(0.0141063 0.237232 0)
(0.0137117 0.253653 0)
(0.0143347 0.246575 0)
(0.0155318 0.219867 0)
(0.0163916 0.181817 0)
(0.0164454 0.140101 0)
(0.0153076 0.0991593 0)
(0.0130307 0.0602295 0)
(0.00986292 0.0226279 0)
(0.00575446 -0.0147547 0)
(0.000562285 -0.0527027 0)
(-0.00556387 -0.0913115 0)
(-0.0130323 -0.130209 0)
(-0.0219795 -0.170392 0)
(-0.0377201 -0.220769 0)
(-0.0487297 -0.304522 0)
(-0.0679046 -0.408532 0)
(-0.0144592 -0.360066 0)
(0.0103313 0.0844935 0)
(0.0234233 0.186521 0)
(0.0310884 0.233355 0)
(0.0370193 0.250198 0)
(0.0426823 0.24336 0)
(0.0476383 0.217575 0)
(0.0510767 0.180812 0)
(0.0527536 0.140404 0)
(0.0526231 0.10064 0)
(0.0508947 0.0628272 0)
(0.0477854 0.0264586 0)
(0.0431773 -0.00952245 0)
(0.0369029 -0.0460066 0)
(0.0290864 -0.0831482 0)
(0.0189296 -0.120579 0)
(0.00760234 -0.158524 0)
(-0.0118138 -0.204482 0)
(-0.0242358 -0.286524 0)
(-0.0558424 -0.411038 0)
(-0.00613703 -0.401913 0)
(0.00988008 0.0672395 0)
(0.0290358 0.170709 0)
(0.0443646 0.222262 0)
(0.0569097 0.241362 0)
(0.0682061 0.236437 0)
(0.0778959 0.213075 0)
(0.0851198 0.178781 0)
(0.089577 0.140438 0)
(0.0913442 0.102275 0)
(0.0907207 0.0658351 0)
(0.0880362 0.0309811 0)
(0.082987 -0.0033036 0)
(0.0754714 -0.0375524 0)
(0.0657775 -0.0723399 0)
(0.0525229 -0.10747 0)
(0.0375864 -0.142822 0)
(0.0131409 -0.184308 0)
(8.72358e-05 -0.263284 0)
(-0.0447941 -0.406737 0)
(0.00276672 -0.436288 0)
(0.00693125 0.0493984 0)
(0.0293711 0.148983 0)
(0.0511243 0.203669 0)
(0.0700072 0.224592 0)
(0.0874874 0.221737 0)
(0.103186 0.201579 0)
(0.11586 0.170983 0)
(0.124829 0.136091 0)
(0.130004 0.10089 0)
(0.131627 0.0670577 0)
(0.129964 0.034845 0)
(0.125041 0.00342765 0)
(0.116408 -0.0274743 0)
(0.104674 -0.0587185 0)
(0.0875758 -0.0903468 0)
(0.0683813 -0.122968 0)
(0.0383112 -0.160889 0)
(0.0238689 -0.237183 0)
(-0.0344352 -0.398982 0)
(0.0134767 -0.464443 0)
(0.00238763 0.0346256 0)
(0.0236465 0.123909 0)
(0.0509701 0.179971 0)
(0.0767082 0.202975 0)
(0.101379 0.202666 0)
(0.124269 0.186265 0)
(0.143728 0.160207 0)
(0.158541 0.129774 0)
(0.168291 0.0985783 0)
(0.173185 0.0683085 0)
(0.173161 0.039562 0)
(0.168933 0.0119333 0)
(0.159095 -0.0149193 0)
(0.145359 -0.0417293 0)
(0.12405 -0.0687763 0)
(0.100503 -0.0975812 0)
(0.0646411 -0.132737 0)
(0.0470169 -0.207476 0)
(-0.0226992 -0.387095 0)
(0.0285354 -0.485566 0)
(-0.00342646 0.0286109 0)
(0.0100758 0.101505 0)
(0.0371217 0.14871 0)
(0.0689937 0.169482 0)
(0.101895 0.170705 0)
(0.133622 0.158414 0)
(0.161627 0.137978 0)
(0.184179 0.113572 0)
(0.200232 0.0882814 0)
(0.210161 0.0636359 0)
(0.213088 0.0403808 0)
(0.210835 0.018399 0)
(0.200568 -0.0026843 0)
(0.185933 -0.0233254 0)
(0.161112 -0.0439947 0)
(0.134486 -0.0677587 0)
(0.0929457 -0.10171 0)
(0.069885 -0.180027 0)
(-0.00436269 -0.370059 0)
(0.0521637 -0.491645 0)
(-0.0140134 0.0185148 0)
(-0.00751624 0.0881755 0)
(0.0192245 0.1242 0)
(0.0564648 0.13733 0)
(0.0976267 0.136925 0)
(0.138017 0.127743 0)
(0.174278 0.113085 0)
(0.204131 0.0953048 0)
(0.226032 0.0768297 0)
(0.24113 0.0586778 0)
(0.247166 0.0418018 0)
(0.248083 0.0261045 0)
(0.238742 0.0117375 0)
(0.226922 -0.00205618 0)
(0.201916 -0.0160985 0)
(0.177924 -0.0350357 0)
(0.133569 -0.067814 0)
(0.107847 -0.146008 0)
(0.0374757 -0.32612 0)
(0.0923689 -0.455871 0)
(-0.106021 0.0824162 0)
(-0.077761 0.0689894 0)
(-0.0485677 0.0733714 0)
(0.00378468 0.0778935 0)
(0.0573053 0.0782288 0)
(0.110043 0.0739652 0)
(0.157218 0.0666297 0)
(0.199586 0.0572243 0)
(0.231702 0.0475471 0)
(0.259857 0.037889 0)
(0.275586 0.0292201 0)
(0.290742 0.0212323 0)
(0.291092 0.0144732 0)
(0.2952 0.00808884 0)
(0.278893 0.00111977 0)
(0.271673 -0.0100176 0)
(0.232357 -0.035572 0)
(0.218147 -0.0954208 0)
(0.150209 -0.229723 0)
(0.170672 -0.341455 0)
(0.129968 0.103744 0)
(0.158319 0.0752268 0)
(0.212163 0.0532264 0)
(0.270671 0.0416218 0)
(0.323248 0.0359125 0)
(0.375692 0.0319484 0)
(0.42029 0.0289164 0)
(0.465612 0.025581 0)
(0.49871 0.0229029 0)
(0.533962 0.0197104 0)
(0.553401 0.0175473 0)
(0.579211 0.0146093 0)
(0.585348 0.0131642 0)
(0.603686 0.0103451 0)
(0.595104 0.00938264 0)
(0.603603 0.00499903 0)
(0.567792 8.86084e-05 0)
(0.547612 -0.0183163 0)
(0.435689 -0.0504144 0)
(0.336753 -0.101385 0)
)
;

boundaryField
{
    movingWall
    {
        type            fixedValue;
        value           uniform (1 0 0);
    }
    fixedWalls
    {
        type            noSlip;
    }
    frontAndBack
    {
        type            empty;
    }
}


// ************************************************************************* //
