/*--------------------------------*- C++ -*----------------------------------*\
| =========                 |                                                 |
| \\      /  F ield         | OpenFOAM: The Open Source CFD Toolbox           |
|  \\    /   O peration     | Version:  2212                                  |
|   \\  /    A nd           | Website:  www.openfoam.com                      |
|    \\/     M anipulation  |                                                 |
\*---------------------------------------------------------------------------*/
FoamFile
{
    version     2.0;
    format      ascii;
    arch        "LSB;label=32;scalar=64";
    class       volScalarField;
    location    "4.6";
    object      T;
}
// * * * * * * * * * * * * * * * * * * * * * * * * * * * * * * * * * * * * * //

dimensions      [0 0 0 1 0 0 0];

internalField   nonuniform List<scalar> 
400
(
0.533092
0.54901
0.580937
0.6274
0.68016
0.726273
0.756947
0.772473
0.779223
0.783089
0.786143
0.788746
0.79096
0.792496
0.792699
0.790361
0.783505
0.769273
0.748041
0.730495
0.554426
0.573458
0.611317
0.664564
0.719087
0.757165
0.774581
0.781004
0.78434
0.786875
0.789529
0.792784
0.796695
0.800749
0.803508
0.802611
0.794536
0.776235
0.75138
0.732615
0.587493
0.612379
0.658402
0.71307
0.755475
0.774884
0.779677
0.780045
0.77888
0.777954
0.778892
0.78279
0.789692
0.799171
0.808921
0.81517
0.811498
0.790994
0.757612
0.736418
0.619986
0.651026
0.701174
0.74713
0.771106
0.774654
0.769676
0.761541
0.752446
0.745666
0.743365
0.747524
0.75781
0.774476
0.795074
0.815467
0.827349
0.818299
0.778408
0.747491
0.645739
0.681051
0.72973
0.762019
0.768685
0.759053
0.743072
0.724037
0.70609
0.693035
0.687243
0.690858
0.703437
0.725749
0.756179
0.791551
0.824576
0.841532
0.819284
0.770201
0.664108
0.700991
0.744339
0.762276
0.754084
0.732472
0.705224
0.67636
0.651454
0.633861
0.625695
0.628292
0.641627
0.666359
0.702035
0.746912
0.796213
0.839479
0.85428
0.804795
0.676396
0.71244
0.748702
0.753773
0.733411
0.701486
0.664913
0.629246
0.600329
0.580714
0.571789
0.573813
0.586978
0.611775
0.648697
0.69748
0.755374
0.814943
0.860423
0.853019
0.684128
0.717806
0.747153
0.742032
0.712203
0.672058
0.628773
0.589129
0.558496
0.538569
0.529822
0.531712
0.544187
0.567612
0.603086
0.652031
0.714113
0.783609
0.846884
0.880022
0.688634
0.719207
0.742726
0.730303
0.693675
0.647736
0.600293
0.558697
0.527635
0.5081
0.499795
0.501777
0.51365
0.535431
0.56806
0.614017
0.676307
0.752642
0.827999
0.874062
0.690811
0.718182
0.737635
0.721187
0.68057
0.631051
0.581209
0.53862
0.507424
0.488106
0.4799
0.481786
0.493249
0.513993
0.544229
0.586114
0.645122
0.724586
0.812001
0.870065
0.691273
0.715684
0.732794
0.715135
0.672986
0.621955
0.5713
0.528449
0.497116
0.477566
0.468897
0.470215
0.48107
0.501041
0.529627
0.567756
0.621627
0.700348
0.796534
0.86736
0.690409
0.712245
0.728586
0.712649
0.671825
0.621412
0.571212
0.528456
0.496729
0.476441
0.466831
0.46714
0.476982
0.495943
0.523118
0.558029
0.606021
0.681498
0.784586
0.866024
0.688299
0.708068
0.724743
0.712705
0.675627
0.627813
0.57946
0.537626
0.505894
0.484963
0.474321
0.473327
0.481674
0.498943
0.524146
0.555944
0.597721
0.667329
0.774744
0.865946
0.684794
0.703035
0.720657
0.714444
0.683987
0.641379
0.59673
0.556944
0.525734
0.50426
0.492431
0.4897
0.49592
0.51059
0.53278
0.560759
0.596295
0.658876
0.768428
0.867007
0.679661
0.697252
0.715725
0.715521
0.693147
0.657856
0.619023
0.583222
0.554145
0.533256
0.520863
0.516515
0.520169
0.531325
0.549158
0.57237
0.601644
0.655552
0.764717
0.86915
0.673154
0.690435
0.709703
0.715559
0.702818
0.6773
0.646718
0.616954
0.59159
0.572313
0.55975
0.553755
0.554187
0.560777
0.572968
0.590015
0.612781
0.656856
0.764224
0.872525
0.6671
0.683923
0.702256
0.711323
0.706509
0.691084
0.670395
0.648985
0.629758
0.614296
0.603192
0.596633
0.59436
0.596414
0.602837
0.613325
0.630518
0.666642
0.770107
0.878197
0.66267
0.678732
0.697319
0.708417
0.709997
0.703754
0.692811
0.67998
0.667323
0.656173
0.647148
0.640658
0.636829
0.635717
0.63825
0.643855
0.657756
0.687123
0.782075
0.885456
0.621639
0.677633
0.685875
0.693144
0.695056
0.693993
0.690942
0.687546
0.684098
0.681793
0.680367
0.680451
0.681928
0.684606
0.689882
0.69606
0.710995
0.736487
0.810963
0.897888
0.732491
0.76626
0.785443
0.798162
0.806367
0.812421
0.816741
0.820749
0.823996
0.827614
0.830768
0.834543
0.837895
0.841963
0.845622
0.85041
0.855773
0.866584
0.88669
0.923908
)
;

boundaryField
{
    movingWall
    {
        type            fixedValue;
        value           uniform 1;
    }
    fixedWalls
    {
        type            zeroGradient;
    }
    frontAndBack
    {
        type            empty;
    }
}


// ************************************************************************* //
