/*--------------------------------*- C++ -*----------------------------------*\
| =========                 |                                                 |
| \\      /  F ield         | OpenFOAM: The Open Source CFD Toolbox           |
|  \\    /   O peration     | Version:  2212                                  |
|   \\  /    A nd           | Website:  www.openfoam.com                      |
|    \\/     M anipulation  |                                                 |
\*---------------------------------------------------------------------------*/
FoamFile
{
    version     2.0;
    format      ascii;
    arch        "LSB;label=32;scalar=64";
    class       surfaceScalarField;
    location    "5";
    object      phi;
}
// * * * * * * * * * * * * * * * * * * * * * * * * * * * * * * * * * * * * * //

dimensions      [0 3 -1 0 0 0 0];

oriented        oriented;

internalField   nonuniform List<scalar> 
760
(
1.55255e-07
-1.55236e-07
2.91794e-07
-1.3654e-07
3.07705e-07
-1.59106e-08
1.8143e-07
1.26275e-07
-1.2198e-07
3.0341e-07
-6.66126e-07
5.44146e-07
-1.48292e-06
8.16797e-07
-2.48557e-06
1.00265e-06
-3.47284e-06
9.87266e-07
-4.21216e-06
7.39326e-07
-4.53667e-06
3.24507e-07
-4.34903e-06
-1.87638e-07
-3.59286e-06
-7.56169e-07
-2.38206e-06
-1.2108e-06
-9.46364e-07
-1.43569e-06
3.39761e-07
-1.28612e-06
1.08315e-06
-7.43386e-07
1.02923e-06
5.3917e-08
4.59689e-07
5.6954e-07
4.59689e-07
1.23573e-07
-2.7881e-07
7.19332e-08
-8.48996e-08
-2.99481e-07
3.55504e-07
-1.0795e-06
9.0629e-07
-2.31287e-06
1.53678e-06
-3.91943e-06
2.1507e-06
-5.6496e-06
2.54697e-06
-7.19106e-06
2.5441e-06
-8.31949e-06
2.11569e-06
-8.92503e-06
1.34487e-06
-8.96061e-06
3.60092e-07
-8.40356e-06
-7.44691e-07
-7.28508e-06
-1.87465e-06
-5.63817e-06
-2.85771e-06
-3.6065e-06
-3.46736e-06
-1.4943e-06
-3.39832e-06
1.72796e-07
-2.41048e-06
8.54554e-07
-6.27841e-07
5.23995e-07
9.001e-07
9.83683e-07
-1.28725e-07
-1.50085e-07
-6.34933e-07
4.21308e-07
-1.62367e-06
1.34424e-06
-3.13564e-06
2.41826e-06
-5.04568e-06
3.44682e-06
-7.05571e-06
4.16073e-06
-8.85131e-06
4.34257e-06
-1.02525e-05
3.94529e-06
-1.12075e-05
3.07065e-06
-1.17085e-05
1.8459e-06
-1.1704e-05
3.55623e-07
-1.12474e-05
-1.20132e-06
-1.03183e-05
-2.80375e-06
-8.86237e-06
-4.31362e-06
-6.85962e-06
-5.47011e-06
-4.39886e-06
-5.85909e-06
-1.87888e-06
-4.93046e-06
-8.85554e-08
-2.41816e-06
2.9382e-07
5.17724e-07
1.2775e-06
-5.00037e-07
3.49952e-07
-1.55728e-06
1.47855e-06
-3.11214e-06
2.8991e-06
-5.06769e-06
4.37381e-06
-7.16502e-06
5.54415e-06
-9.09747e-06
6.09318e-06
-1.06631e-05
5.90821e-06
-1.18192e-05
5.10137e-06
-1.25937e-05
3.84516e-06
-1.30214e-05
2.27364e-06
-1.30875e-05
4.21682e-07
-1.285e-05
-1.43886e-06
-1.22705e-05
-3.38321e-06
-1.12472e-05
-5.33692e-06
-9.64902e-06
-7.06828e-06
-7.35126e-06
-8.15685e-06
-4.39221e-06
-7.88952e-06
-1.37768e-06
-5.43269e-06
1.19835e-07
-9.79794e-07
1.39734e-06
-8.59608e-07
1.20956e-06
-2.35482e-06
2.97377e-06
-4.21968e-06
4.76395e-06
-6.26022e-06
6.41434e-06
-8.19649e-06
7.48043e-06
-9.80632e-06
7.70301e-06
-1.10128e-05
7.11466e-06
-1.18422e-05
5.93076e-06
-1.23564e-05
4.35939e-06
-1.26284e-05
2.54563e-06
-1.27489e-05
5.42235e-07
-1.27052e-05
-1.48259e-06
-1.2488e-05
-3.60046e-06
-1.20179e-05
-5.80699e-06
-1.11084e-05
-7.97774e-06
-9.47162e-06
-9.79368e-06
-6.80845e-06
-1.05527e-05
-3.21771e-06
-9.02343e-06
-2.61809e-07
-3.93569e-06
1.13553e-06
-1.08303e-06
2.29259e-06
-2.77464e-06
4.66538e-06
-4.66174e-06
6.65106e-06
-6.51338e-06
8.26597e-06
-8.10593e-06
9.07299e-06
-9.30834e-06
8.90542e-06
-1.01161e-05
7.92246e-06
-1.05942e-05
6.40887e-06
-1.08331e-05
4.59824e-06
-1.09329e-05
2.64543e-06
-1.10153e-05
6.24624e-07
-1.10677e-05
-1.43021e-06
-1.11056e-05
-3.56249e-06
-1.10997e-05
-5.81294e-06
-1.08957e-05
-8.18176e-06
-1.0166e-05
-1.05233e-05
-8.4168e-06
-1.23019e-05
-5.23326e-06
-1.2207e-05
-1.15694e-06
-8.01202e-06
-2.14068e-08
-1.1062e-06
3.39878e-06
-2.74796e-06
6.30714e-06
-4.43963e-06
8.34273e-06
-5.96993e-06
9.79627e-06
-7.17904e-06
1.02821e-05
-8.00425e-06
9.73063e-06
-8.48279e-06
8.40099e-06
-8.7015e-06
6.62758e-06
-8.76421e-06
4.66096e-06
-8.76852e-06
2.64974e-06
-8.79762e-06
6.53722e-07
-8.87044e-06
-1.35738e-06
-9.00674e-06
-3.42619e-06
-9.21764e-06
-5.60203e-06
-9.44584e-06
-7.95357e-06
-9.45909e-06
-1.05101e-05
-8.73802e-06
-1.3023e-05
-6.52583e-06
-1.44192e-05
-2.41886e-06
-1.2119e-05
-2.44026e-06
-9.31706e-07
4.33049e-06
-2.33813e-06
7.71357e-06
-3.72057e-06
9.72516e-06
-4.89564e-06
1.09713e-05
-5.76234e-06
1.11488e-05
-6.30337e-06
1.02717e-05
-6.57545e-06
8.67307e-06
-6.66954e-06
6.72166e-06
-6.68214e-06
4.67356e-06
-6.68695e-06
2.65455e-06
-6.72044e-06
6.87212e-07
-6.79995e-06
-1.27788e-06
-6.94663e-06
-3.2795e-06
-7.19094e-06
-5.35772e-06
-7.54947e-06
-7.59505e-06
-7.93018e-06
-1.01294e-05
-7.92218e-06
-1.3031e-05
-6.70773e-06
-1.56336e-05
-3.57989e-06
-1.52468e-05
-6.02015e-06
-6.22154e-07
4.95264e-06
-1.68095e-06
8.77236e-06
-2.71077e-06
1.0755e-05
-3.54688e-06
1.18075e-05
-4.13358e-06
1.17355e-05
-4.48063e-06
1.06187e-05
-4.64662e-06
8.83906e-06
-4.71004e-06
6.78508e-06
-4.74362e-06
4.70715e-06
-4.79153e-06
2.70245e-06
-4.86419e-06
7.5987e-07
-4.96826e-06
-1.1738e-06
-5.11381e-06
-3.13395e-06
-5.3296e-06
-5.14193e-06
-5.67058e-06
-7.25407e-06
-6.1495e-06
-9.65043e-06
-6.54682e-06
-1.26336e-05
-6.12079e-06
-1.60596e-05
-3.91862e-06
-1.7449e-05
-9.93876e-06
-2.31159e-07
5.1838e-06
-8.89514e-07
9.43071e-06
-1.55897e-06
1.14244e-05
-2.08658e-06
1.23351e-05
-2.44442e-06
1.20933e-05
-2.65656e-06
1.08309e-05
-2.7711e-06
8.95361e-06
-2.84142e-06
6.8554e-06
-2.91252e-06
4.77824e-06
-3.00668e-06
2.79662e-06
-3.1268e-06
8.79989e-07
-3.27267e-06
-1.02793e-06
-3.44461e-06
-2.96201e-06
-3.65507e-06
-4.93147e-06
-3.95516e-06
-6.95398e-06
-4.42677e-06
-9.17883e-06
-5.016e-06
-1.20444e-05
-5.11937e-06
-1.59563e-05
-3.55551e-06
-1.90129e-05
-1.34943e-05
1.6354e-07
5.02026e-06
-6.90362e-08
9.66329e-06
-4.00832e-07
1.17562e-05
-6.50753e-07
1.2585e-05
-8.04534e-07
1.22471e-05
-8.93216e-07
1.09195e-05
-9.56279e-07
9.01667e-06
-1.02573e-06
6.92485e-06
-1.11827e-06
4.87078e-06
-1.2417e-06
2.92004e-06
-1.39842e-06
1.03671e-06
-1.59064e-06
-8.3572e-07
-1.8171e-06
-2.73555e-06
-2.07594e-06
-4.67263e-06
-2.39508e-06
-6.63484e-06
-2.86709e-06
-8.70682e-06
-3.55556e-06
-1.13559e-05
-4.02328e-06
-1.54886e-05
-3.02441e-06
-2.00117e-05
-1.65187e-05
5.00012e-07
4.52025e-06
6.97693e-07
9.46561e-06
7.40971e-07
1.1713e-05
7.76804e-07
1.25492e-05
8.22062e-07
1.22019e-05
8.51254e-07
1.08903e-05
8.445e-07
9.02342e-06
7.93493e-07
6.97586e-06
6.99481e-07
4.9648e-06
5.64371e-07
3.05515e-06
3.83303e-07
1.21778e-06
1.50053e-07
-6.0247e-07
-1.37253e-07
-2.44824e-06
-4.85305e-07
-4.32458e-06
-8.98634e-07
-6.22151e-06
-1.42223e-06
-8.18322e-06
-2.20335e-06
-1.05748e-05
-2.95466e-06
-1.47373e-05
-2.46135e-06
-2.0505e-05
-1.898e-05
7.55101e-07
3.76515e-06
1.35211e-06
8.8686e-06
1.74464e-06
1.13204e-05
2.07409e-06
1.22197e-05
2.34735e-06
1.19286e-05
2.53393e-06
1.07038e-05
2.62541e-06
8.93194e-06
2.6325e-06
6.96876e-06
2.56955e-06
5.02775e-06
2.44376e-06
3.18094e-06
2.24812e-06
1.41342e-06
1.96864e-06
-3.22986e-07
1.60525e-06
-2.08485e-06
1.15294e-06
-3.87227e-06
6.06925e-07
-5.67549e-06
-8.49911e-08
-7.4913e-06
-9.58984e-07
-9.70083e-06
-1.9222e-06
-1.3774e-05
-1.92667e-06
-2.05006e-05
-2.09067e-05
8.69496e-07
2.89565e-06
1.80793e-06
7.93017e-06
2.54918e-06
1.05792e-05
3.18997e-06
1.15789e-05
3.73758e-06
1.1381e-05
4.14852e-06
1.02928e-05
4.40666e-06
8.67381e-06
4.52597e-06
6.84945e-06
4.5298e-06
5.02392e-06
4.43378e-06
3.27695e-06
4.23626e-06
1.61094e-06
3.9066e-06
6.67025e-09
3.46249e-06
-1.64074e-06
2.87964e-06
-3.28941e-06
2.15848e-06
-4.95433e-06
1.31692e-06
-6.64975e-06
2.63558e-07
-8.64747e-06
-9.61894e-07
-1.25486e-05
-1.42899e-06
-2.00335e-05
-2.23357e-05
8.05379e-07
2.09027e-06
1.95186e-06
6.78369e-06
2.9939e-06
9.53712e-06
3.96704e-06
1.06058e-05
4.84404e-06
1.0504e-05
5.55869e-06
9.57817e-06
6.07165e-06
8.16085e-06
6.38591e-06
6.5352e-06
6.52271e-06
4.88711e-06
6.50071e-06
3.29896e-06
6.31893e-06
1.79273e-06
5.9736e-06
3.51994e-07
5.43402e-06
-1.10116e-06
4.70587e-06
-2.56127e-06
3.78117e-06
-4.02963e-06
2.68838e-06
-5.55696e-06
1.38624e-06
-7.34533e-06
-1.56929e-07
-1.10054e-05
-9.14974e-07
-1.92754e-05
-2.32507e-05
5.76871e-07
1.5134e-06
1.75765e-06
5.60291e-06
3.09549e-06
8.19927e-06
4.44626e-06
9.25502e-06
5.71253e-06
9.23772e-06
6.79561e-06
8.49509e-06
7.63e-06
7.32647e-06
8.20302e-06
5.96217e-06
8.52737e-06
4.56276e-06
8.62033e-06
3.206e-06
8.48894e-06
1.92412e-06
8.13081e-06
7.10118e-07
7.50226e-06
-4.72599e-07
6.62014e-06
-1.67915e-06
5.47155e-06
-2.88104e-06
4.09737e-06
-4.18278e-06
2.56863e-06
-5.81659e-06
9.54644e-07
-9.39144e-06
-1.45526e-07
-1.81753e-05
-2.33962e-05
1.51741e-07
1.36166e-06
1.03867e-06
4.71598e-06
2.51542e-06
6.72252e-06
4.23718e-06
7.53326e-06
5.95912e-06
7.51578e-06
7.49376e-06
6.96045e-06
8.73837e-06
6.08185e-06
9.66328e-06
5.03727e-06
1.02637e-05
3.96231e-06
1.05517e-05
2.918e-06
1.05335e-05
1.94239e-06
1.02148e-05
1.02877e-06
9.55137e-06
1.90847e-07
8.56268e-06
-6.90467e-07
7.24034e-06
-1.5587e-06
5.63548e-06
-2.57792e-06
3.90781e-06
-4.08892e-06
2.23834e-06
-7.72197e-06
6.5222e-07
-1.65891e-05
-2.2744e-05
-5.17074e-07
1.87874e-06
2.00392e-07
3.99852e-06
1.75571e-06
5.1672e-06
3.81916e-06
5.46981e-06
5.9747e-06
5.36024e-06
7.93617e-06
4.99899e-06
9.56702e-06
4.451e-06
1.0826e-05
3.77833e-06
1.16956e-05
3.09265e-06
1.21927e-05
2.42094e-06
1.23211e-05
1.81393e-06
1.21011e-05
1.2488e-06
1.15555e-05
7.36437e-07
1.06567e-05
2.0836e-07
9.40889e-06
-3.10899e-07
7.88356e-06
-1.05259e-06
6.26644e-06
-2.47179e-06
4.45609e-06
-5.91162e-06
2.05534e-06
-1.41884e-05
-2.06886e-05
-4.17917e-06
6.05791e-06
-3.64216e-06
3.46151e-06
-1.24737e-06
2.77241e-06
1.5509e-06
2.67153e-06
4.29034e-06
2.62079e-06
6.82483e-06
2.4645e-06
9.04145e-06
2.23438e-06
1.08802e-05
1.93957e-06
1.2323e-05
1.64987e-06
1.3397e-05
1.34695e-06
1.41194e-05
1.09152e-06
1.45349e-05
8.33335e-07
1.46315e-05
6.39806e-07
1.4419e-05
4.20884e-07
1.38906e-05
2.17443e-07
1.30619e-05
-2.23903e-07
1.1922e-05
-1.33184e-06
1.0112e-05
-4.10169e-06
5.63772e-06
-9.71406e-06
-1.50509e-05
6.05791e-06
9.51941e-06
1.22918e-05
1.49634e-05
1.75842e-05
2.00487e-05
2.2283e-05
2.42226e-05
2.58725e-05
2.72194e-05
2.83109e-05
2.91443e-05
2.97841e-05
3.0205e-05
3.04224e-05
3.01985e-05
2.88667e-05
2.4765e-05
1.50509e-05
)
;

boundaryField
{
    movingWall
    {
        type            calculated;
        value           uniform 0;
    }
    fixedWalls
    {
        type            calculated;
        value           uniform 0;
    }
    frontAndBack
    {
        type            empty;
        value           nonuniform List<scalar> 0();
    }
}


// ************************************************************************* //
