/*--------------------------------*- C++ -*----------------------------------*\
| =========                 |                                                 |
| \\      /  F ield         | OpenFOAM: The Open Source CFD Toolbox           |
|  \\    /   O peration     | Version:  2212                                  |
|   \\  /    A nd           | Website:  www.openfoam.com                      |
|    \\/     M anipulation  |                                                 |
\*---------------------------------------------------------------------------*/
FoamFile
{
    version     2.0;
    format      ascii;
    arch        "LSB;label=32;scalar=64";
    class       volScalarField;
    location    "5";
    object      T;
}
// * * * * * * * * * * * * * * * * * * * * * * * * * * * * * * * * * * * * * //

dimensions      [0 0 0 1 0 0 0];

internalField   nonuniform List<scalar> 
400
(
0.5892
0.602947
0.630531
0.670677
0.716226
0.755983
0.782466
0.796073
0.802253
0.805887
0.80872
0.811149
0.813272
0.814865
0.815361
0.813712
0.808194
0.796407
0.778796
0.764286
0.607683
0.624082
0.656733
0.702688
0.749741
0.78265
0.797865
0.803618
0.806555
0.808682
0.810927
0.813793
0.817379
0.821273
0.824203
0.824078
0.817754
0.802553
0.781756
0.766139
0.636263
0.657657
0.697286
0.744429
0.781052
0.797871
0.801963
0.80195
0.800414
0.799105
0.799581
0.802915
0.809181
0.818044
0.827437
0.833999
0.831995
0.815287
0.78723
0.769462
0.664239
0.690887
0.734019
0.773609
0.794224
0.796991
0.791973
0.783863
0.774863
0.768039
0.765446
0.768963
0.778295
0.79372
0.812993
0.832387
0.844467
0.838261
0.804998
0.77893
0.686304
0.716582
0.758367
0.786023
0.791336
0.782054
0.766703
0.748432
0.731175
0.718451
0.71254
0.715497
0.726946
0.747619
0.775969
0.809016
0.840113
0.857068
0.839647
0.798205
0.701948
0.733513
0.770557
0.785542
0.777477
0.757066
0.731173
0.703701
0.679803
0.66264
0.654307
0.656181
0.668339
0.691418
0.724901
0.766978
0.813059
0.853595
0.868815
0.827509
0.712318
0.743065
0.773781
0.777284
0.75811
0.728051
0.693378
0.659369
0.631405
0.611989
0.602608
0.603709
0.615643
0.638933
0.673938
0.720148
0.774654
0.830329
0.872878
0.868448
0.718755
0.747361
0.771878
0.766202
0.738295
0.70049
0.659395
0.621374
0.591407
0.571287
0.5617
0.56241
0.573589
0.595683
0.629647
0.676514
0.735508
0.800878
0.859862
0.890926
0.722408
0.748244
0.767502
0.755177
0.720949
0.677646
0.632475
0.592304
0.56155
0.541407
0.531893
0.532431
0.542904
0.56347
0.594989
0.639523
0.699328
0.771625
0.842193
0.885028
0.724065
0.74708
0.762663
0.746623
0.708654
0.66192
0.614319
0.572933
0.541738
0.521499
0.511821
0.512067
0.522011
0.541533
0.570862
0.611864
0.669147
0.744955
0.827079
0.881163
0.724256
0.744695
0.758138
0.740893
0.70145
0.653256
0.604772
0.562957
0.531444
0.510811
0.500552
0.500141
0.509402
0.528093
0.555798
0.593341
0.64617
0.721837
0.812535
0.878541
0.723321
0.741564
0.754318
0.738534
0.700258
0.652634
0.60454
0.562751
0.53081
0.509434
0.498247
0.496838
0.505073
0.522693
0.548907
0.583293
0.630719
0.703749
0.801231
0.877226
0.721335
0.73784
0.750901
0.738523
0.703633
0.658479
0.612191
0.571354
0.539506
0.517616
0.505527
0.502916
0.509702
0.525609
0.549754
0.580946
0.622417
0.69017
0.791964
0.877101
0.718201
0.73344
0.74743
0.740234
0.711343
0.671087
0.628418
0.589713
0.558594
0.536415
0.52338
0.519213
0.523976
0.537302
0.55836
0.585601
0.620896
0.682075
0.786012
0.878054
0.713765
0.728412
0.743202
0.741338
0.719748
0.686322
0.649288
0.614629
0.585877
0.5646
0.551316
0.545791
0.548161
0.558054
0.574756
0.597144
0.626142
0.678995
0.782569
0.880028
0.708251
0.722616
0.738231
0.741808
0.728887
0.704448
0.675227
0.646508
0.621629
0.602274
0.589179
0.582346
0.581767
0.587291
0.598474
0.614729
0.637145
0.680401
0.782158
0.883156
0.703101
0.716948
0.731728
0.738235
0.732488
0.717297
0.697323
0.676604
0.657794
0.642401
0.631043
0.623988
0.621051
0.62237
0.628048
0.637916
0.654678
0.690015
0.787798
0.888433
0.699341
0.71281
0.727952
0.73636
0.73642
0.7296
0.718615
0.705953
0.693459
0.682373
0.673268
0.666576
0.66242
0.660927
0.662984
0.668149
0.681425
0.709769
0.799106
0.895173
0.661506
0.710542
0.716884
0.72236
0.723134
0.721341
0.717828
0.714084
0.710336
0.707696
0.705898
0.70555
0.706532
0.708693
0.713329
0.718894
0.732748
0.75665
0.826226
0.906718
0.761007
0.790973
0.807862
0.81893
0.825932
0.831029
0.834586
0.837905
0.840563
0.843593
0.846229
0.849454
0.852323
0.855855
0.859057
0.863288
0.868133
0.878
0.896619
0.930768
)
;

boundaryField
{
    movingWall
    {
        type            fixedValue;
        value           uniform 1;
    }
    fixedWalls
    {
        type            zeroGradient;
    }
    frontAndBack
    {
        type            empty;
    }
}


// ************************************************************************* //
