/*--------------------------------*- C++ -*----------------------------------*\
| =========                 |                                                 |
| \\      /  F ield         | OpenFOAM: The Open Source CFD Toolbox           |
|  \\    /   O peration     | Version:  2212                                  |
|   \\  /    A nd           | Website:  www.openfoam.com                      |
|    \\/     M anipulation  |                                                 |
\*---------------------------------------------------------------------------*/
FoamFile
{
    version     2.0;
    format      ascii;
    arch        "LSB;label=32;scalar=64";
    class       surfaceScalarField;
    location    "2.1";
    object      phi;
}
// * * * * * * * * * * * * * * * * * * * * * * * * * * * * * * * * * * * * * //

dimensions      [0 3 -1 0 0 0 0];

oriented        oriented;

internalField   nonuniform List<scalar> 
760
(
1.05356e-07
-1.05357e-07
1.8473e-07
-7.93736e-08
1.76582e-07
8.14777e-09
5.87049e-08
1.17878e-07
-2.04171e-07
2.62876e-07
-6.62227e-07
4.58057e-07
-1.34381e-06
6.81587e-07
-2.19462e-06
8.50809e-07
-3.06059e-06
8.65965e-07
-3.74082e-06
6.80233e-07
-4.06937e-06
3.28549e-07
-3.95017e-06
-1.19201e-07
-3.30896e-06
-6.41207e-07
-2.2431e-06
-1.06586e-06
-9.5918e-07
-1.28392e-06
2.03991e-07
-1.16317e-06
9.0124e-07
-6.97249e-07
8.93866e-07
7.37362e-09
4.0635e-07
4.87515e-07
4.0635e-07
4.60527e-08
-1.5141e-07
-5.96663e-08
2.63457e-08
-4.00921e-07
3.49403e-07
-1.05837e-06
7.75325e-07
-2.08323e-06
1.28773e-06
-3.43885e-06
1.81367e-06
-4.95186e-06
2.1946e-06
-6.36406e-06
2.26301e-06
-7.44931e-06
1.95122e-06
-8.07324e-06
1.30416e-06
-8.17481e-06
4.30122e-07
-7.71565e-06
-5.78355e-07
-6.72354e-06
-1.63332e-06
-5.22876e-06
-2.56064e-06
-3.36719e-06
-3.14549e-06
-1.42431e-06
-3.10605e-06
1.06683e-07
-2.22824e-06
7.51366e-07
-6.37309e-07
4.71463e-07
7.67418e-07
8.77813e-07
-1.68983e-07
1.75732e-08
-6.40104e-07
4.97467e-07
-1.48056e-06
1.18986e-06
-2.74212e-06
2.03688e-06
-4.36945e-06
2.91507e-06
-6.15656e-06
3.60078e-06
-7.83294e-06
3.87098e-06
-9.20067e-06
3.63073e-06
-1.01712e-05
2.92172e-06
-1.07152e-05
1.84822e-06
-1.079e-05
5.04855e-07
-1.04066e-05
-9.61693e-07
-9.56486e-06
-2.47509e-06
-8.21751e-06
-3.908e-06
-6.34783e-06
-5.01517e-06
-4.05738e-06
-5.39651e-06
-1.72237e-06
-4.56325e-06
-7.98176e-08
-2.27986e-06
2.78992e-07
4.08609e-07
1.15681e-06
-4.43915e-07
4.61489e-07
-1.35344e-06
1.40699e-06
-2.66165e-06
2.49808e-06
-4.33637e-06
3.71159e-06
-6.20923e-06
4.78794e-06
-8.02738e-06
5.41893e-06
-9.58015e-06
5.42375e-06
-1.07757e-05
4.82633e-06
-1.16112e-05
3.75714e-06
-1.21051e-05
2.34211e-06
-1.22422e-05
6.4199e-07
-1.20542e-05
-1.14968e-06
-1.15256e-05
-3.00372e-06
-1.05597e-05
-4.87386e-06
-9.03753e-06
-6.53734e-06
-6.84624e-06
-7.5878e-06
-4.05156e-06
-7.35793e-06
-1.25818e-06
-5.07324e-06
1.1611e-07
-9.65681e-07
1.27291e-06
-7.16469e-07
1.17796e-06
-1.97335e-06
2.66388e-06
-3.56665e-06
4.09137e-06
-5.37984e-06
5.52479e-06
-7.19754e-06
6.60563e-06
-8.80107e-06
7.02246e-06
-1.00711e-05
6.69375e-06
-1.09912e-05
5.74641e-06
-1.15982e-05
4.36424e-06
-1.19499e-05
2.69376e-06
-1.21148e-05
8.06847e-07
-1.21056e-05
-1.15883e-06
-1.19118e-05
-3.19749e-06
-1.14539e-05
-5.33179e-06
-1.05562e-05
-7.43506e-06
-8.94876e-06
-9.19524e-06
-6.37251e-06
-9.93417e-06
-2.96583e-06
-8.47992e-06
-2.35517e-07
-3.696e-06
1.0374e-06
-8.83612e-07
2.06157e-06
-2.31241e-06
4.09267e-06
-3.96283e-06
5.74179e-06
-5.66873e-06
7.23069e-06
-7.22981e-06
8.16671e-06
-8.49063e-06
8.28329e-06
-9.39821e-06
7.60133e-06
-9.98167e-06
6.32987e-06
-1.03105e-05
4.69305e-06
-1.0474e-05
2.85728e-06
-1.05834e-05
9.16298e-07
-1.06643e-05
-1.078e-06
-1.07129e-05
-3.1489e-06
-1.07042e-05
-5.3405e-06
-1.04869e-05
-7.65232e-06
-9.73954e-06
-9.94259e-06
-7.99396e-06
-1.16798e-05
-4.891e-06
-1.15829e-05
-1.05892e-06
-7.52808e-06
-2.15189e-08
-8.98353e-07
2.95992e-06
-2.30142e-06
5.49574e-06
-3.81634e-06
7.25671e-06
-5.26391e-06
8.67826e-06
-6.48731e-06
9.39011e-06
-7.38937e-06
9.18534e-06
-7.96269e-06
8.17466e-06
-8.2645e-06
6.63168e-06
-8.38429e-06
4.81284e-06
-8.41882e-06
2.89181e-06
-8.45801e-06
9.55487e-07
-8.54263e-06
-9.93385e-07
-8.68774e-06
-3.00379e-06
-8.90798e-06
-5.12025e-06
-9.1431e-06
-7.4172e-06
-9.15074e-06
-9.93495e-06
-8.41323e-06
-1.24173e-05
-6.21593e-06
-1.37802e-05
-2.24797e-06
-1.1496e-05
-2.26949e-06
-7.59872e-07
3.7198e-06
-1.97519e-06
6.71106e-06
-3.23412e-06
8.51564e-06
-4.36406e-06
9.8082e-06
-5.25577e-06
1.02818e-05
-5.85968e-06
9.78925e-06
-6.19749e-06
8.51247e-06
-6.33906e-06
6.77325e-06
-6.37422e-06
4.848e-06
-6.3845e-06
2.90209e-06
-6.41877e-06
9.8975e-07
-6.49865e-06
-9.13504e-07
-6.64839e-06
-2.85405e-06
-6.90532e-06
-4.86333e-06
-7.28784e-06
-7.03468e-06
-7.69607e-06
-9.52672e-06
-7.69949e-06
-1.24138e-05
-6.48246e-06
-1.49972e-05
-3.36744e-06
-1.46111e-05
-5.63693e-06
-5.09621e-07
4.22942e-06
-1.43205e-06
7.63348e-06
-2.37884e-06
9.46243e-06
-3.18762e-06
1.0617e-05
-3.79047e-06
1.08847e-05
-4.17358e-06
1.01724e-05
-4.37306e-06
8.71195e-06
-4.45549e-06
6.85568e-06
-4.4943e-06
4.88681e-06
-4.54165e-06
2.94944e-06
-4.61455e-06
1.06266e-06
-4.71488e-06
-8.13175e-07
-4.85741e-06
-2.71152e-06
-5.07669e-06
-4.64405e-06
-5.43978e-06
-6.67159e-06
-5.96067e-06
-9.00583e-06
-6.39347e-06
-1.1981e-05
-5.97214e-06
-1.54185e-05
-3.78682e-06
-1.67964e-05
-9.42375e-06
-1.93006e-07
4.42242e-06
-7.6843e-07
8.20891e-06
-1.38587e-06
1.00799e-05
-1.89274e-06
1.11238e-05
-2.25066e-06
1.12426e-05
-2.4701e-06
1.03918e-05
-2.5896e-06
8.83145e-06
-2.66016e-06
6.92625e-06
-2.72887e-06
4.95552e-06
-2.8229e-06
3.04348e-06
-2.94498e-06
1.18473e-06
-3.08803e-06
-6.70123e-07
-3.25221e-06
-2.54734e-06
-3.45509e-06
-4.44118e-06
-3.7636e-06
-6.36307e-06
-4.27457e-06
-8.49487e-06
-4.91558e-06
-1.134e-05
-5.04175e-06
-1.52924e-05
-3.49238e-06
-1.83458e-05
-1.29161e-05
1.27193e-07
4.29523e-06
-7.32316e-08
8.40933e-06
-3.7466e-07
1.03813e-05
-6.07819e-07
1.1357e-05
-7.4935e-07
1.13841e-05
-8.23688e-07
1.04661e-05
-8.69734e-07
8.87749e-06
-9.24054e-07
6.98057e-06
-1.00842e-06
5.03989e-06
-1.12958e-06
3.16463e-06
-1.28663e-06
1.34178e-06
-1.47643e-06
-4.80326e-07
-1.69545e-06
-2.32831e-06
-1.94235e-06
-4.19427e-06
-2.25711e-06
-6.04832e-06
-2.75465e-06
-7.99732e-06
-3.49482e-06
-1.05999e-05
-3.99266e-06
-1.47945e-05
-2.99927e-06
-1.93391e-05
-1.59154e-05
3.922e-07
3.90303e-06
5.55692e-07
8.24584e-06
5.95909e-07
1.03411e-05
6.4524e-07
1.13077e-05
7.20156e-07
1.13092e-05
7.88826e-07
1.03975e-05
8.20096e-07
8.84622e-06
7.98915e-07
7.00175e-06
7.23809e-07
5.11499e-06
5.99378e-07
3.28906e-06
4.25564e-07
1.5156e-06
1.96893e-07
-2.51655e-07
-8.14587e-08
-2.04996e-06
-4.21728e-07
-3.854e-06
-8.29507e-07
-5.64054e-06
-1.36681e-06
-7.46002e-06
-2.19171e-06
-9.77496e-06
-2.97232e-06
-1.40139e-05
-2.47242e-06
-1.9839e-05
-1.83878e-05
5.83859e-07
3.31917e-06
1.08205e-06
7.74765e-06
1.43516e-06
9.98797e-06
1.76583e-06
1.0977e-05
2.07771e-06
1.09973e-05
2.32161e-06
1.01536e-05
2.46858e-06
8.69925e-06
2.51863e-06
6.9517e-06
2.48586e-06
5.14776e-06
2.3817e-06
3.39323e-06
2.20512e-06
1.69218e-06
1.93313e-06
2.03283e-08
1.57718e-06
-1.69401e-06
1.13112e-06
-3.40795e-06
5.92233e-07
-5.10165e-06
-1.02226e-07
-6.76556e-06
-1.00739e-06
-8.8698e-06
-1.99516e-06
-1.30262e-05
-1.96292e-06
-1.98713e-05
-2.03507e-05
6.62254e-07
2.65692e-06
1.43301e-06
6.9769e-06
2.08454e-06
9.33644e-06
2.69981e-06
1.03617e-05
3.27219e-06
1.04249e-05
3.7402e-06
9.68556e-06
4.0631e-06
8.37635e-06
4.23882e-06
6.77597e-06
4.28662e-06
5.09996e-06
4.2236e-06
3.45625e-06
4.04852e-06
1.86726e-06
3.75491e-06
3.13944e-07
3.31791e-06
-1.25701e-06
2.74424e-06
-2.83429e-06
2.0346e-06
-4.392e-06
1.20415e-06
-5.93511e-06
1.45124e-07
-7.81077e-06
-1.08376e-06
-1.17973e-05
-1.48837e-06
-1.94667e-05
-2.18391e-05
6.01966e-07
2.05495e-06
1.51718e-06
6.06169e-06
2.41481e-06
8.4388e-06
3.31614e-06
9.4604e-06
4.18399e-06
9.55709e-06
4.93578e-06
8.93377e-06
5.50706e-06
7.80507e-06
5.88035e-06
6.40268e-06
6.06856e-06
4.91175e-06
6.08995e-06
3.43486e-06
5.94848e-06
2.00873e-06
5.63193e-06
6.30487e-07
5.11745e-06
-7.42527e-07
4.41221e-06
-2.12905e-06
3.51367e-06
-3.49346e-06
2.45837e-06
-4.87981e-06
1.19431e-06
-6.5467e-06
-2.81843e-07
-1.03211e-05
-1.00903e-06
-1.87395e-05
-2.28481e-05
4.17133e-07
1.63782e-06
1.3262e-06
5.15262e-06
2.44889e-06
7.31611e-06
3.64934e-06
8.25995e-06
4.84155e-06
8.36489e-06
5.91567e-06
7.85965e-06
6.78255e-06
6.93819e-06
7.40532e-06
5.77992e-06
7.78308e-06
4.53399e-06
7.92832e-06
3.28962e-06
7.84687e-06
2.09017e-06
7.53711e-06
9.40253e-07
6.95118e-06
-1.56598e-07
6.11653e-06
-1.2944e-06
5.0214e-06
-2.39833e-06
3.72197e-06
-3.58039e-06
2.27137e-06
-5.0961e-06
7.09495e-07
-8.75925e-06
-2.65292e-07
-1.77647e-05
-2.31134e-05
5.5594e-08
1.58222e-06
6.75231e-07
4.53298e-06
1.88984e-06
6.1015e-06
3.38621e-06
6.76358e-06
4.95435e-06
6.79675e-06
6.4132e-06
6.4008e-06
7.64056e-06
5.71083e-06
8.58325e-06
4.83723e-06
9.21909e-06
3.89815e-06
9.5528e-06
2.95591e-06
9.58138e-06
2.0616e-06
9.31019e-06
1.21144e-06
8.72948e-06
4.2411e-07
7.80386e-06
-3.68787e-07
6.57438e-06
-1.16884e-06
5.08916e-06
-2.09517e-06
3.51284e-06
-3.51977e-06
1.98684e-06
-7.23325e-06
5.51378e-07
-1.63292e-05
-2.25621e-05
-4.60729e-07
2.04295e-06
3.0931e-08
4.04132e-06
1.2386e-06
4.89384e-06
2.96509e-06
5.03709e-06
4.85813e-06
4.90371e-06
6.6515e-06
4.60743e-06
8.19401e-06
4.16832e-06
9.42383e-06
3.60741e-06
1.03024e-05
3.01959e-06
1.08367e-05
2.42158e-06
1.10229e-05
1.87538e-06
1.08806e-05
1.35376e-06
1.04098e-05
8.94892e-07
9.61993e-06
4.21124e-07
8.52838e-06
-7.7294e-08
7.18043e-06
-7.47215e-07
5.7844e-06
-2.12375e-06
4.18192e-06
-5.63077e-06
1.93861e-06
-1.40859e-05
-2.06235e-05
-4.12265e-06
6.1656e-06
-3.66509e-06
3.58377e-06
-1.5159e-06
2.74465e-06
9.73169e-07
2.54802e-06
3.42675e-06
2.45013e-06
5.73966e-06
2.29452e-06
7.81208e-06
2.09589e-06
9.57763e-06
1.84186e-06
1.10024e-05
1.5948e-06
1.20984e-05
1.32562e-06
1.28716e-05
1.1022e-06
1.33588e-05
8.66507e-07
1.3555e-05
6.98661e-07
1.34849e-05
4.91293e-07
1.31011e-05
3.06433e-07
1.24277e-05
-7.37906e-08
1.15127e-05
-1.20871e-06
9.91857e-06
-4.03666e-06
5.55668e-06
-9.72402e-06
-1.50668e-05
6.1656e-06
9.74936e-06
1.2494e-05
1.5042e-05
1.74922e-05
1.97867e-05
2.18826e-05
2.37244e-05
2.53192e-05
2.66449e-05
2.77471e-05
2.86136e-05
2.93122e-05
2.98035e-05
3.01099e-05
3.00362e-05
2.88274e-05
2.47908e-05
1.50668e-05
)
;

boundaryField
{
    movingWall
    {
        type            calculated;
        value           uniform 0;
    }
    fixedWalls
    {
        type            calculated;
        value           uniform 0;
    }
    frontAndBack
    {
        type            empty;
        value           nonuniform List<scalar> 0();
    }
}


// ************************************************************************* //
