/*--------------------------------*- C++ -*----------------------------------*\
| =========                 |                                                 |
| \\      /  F ield         | OpenFOAM: The Open Source CFD Toolbox           |
|  \\    /   O peration     | Version:  2212                                  |
|   \\  /    A nd           | Website:  www.openfoam.com                      |
|    \\/     M anipulation  |                                                 |
\*---------------------------------------------------------------------------*/
FoamFile
{
    version     2.0;
    format      ascii;
    arch        "LSB;label=32;scalar=64";
    class       volScalarField;
    location    "2.1";
    object      T;
}
// * * * * * * * * * * * * * * * * * * * * * * * * * * * * * * * * * * * * * //

dimensions      [0 0 0 1 0 0 0];

internalField   nonuniform List<scalar> 
400
(
0.0436434
0.0614148
0.0989055
0.158162
0.236381
0.321918
0.397317
0.44944
0.478103
0.493303
0.502946
0.509074
0.511873
0.51036
0.503042
0.486471
0.455173
0.401064
0.329322
0.275071
0.0596439
0.0853083
0.138076
0.217254
0.312622
0.401301
0.462397
0.49603
0.515899
0.530411
0.5417
0.550498
0.556732
0.558883
0.554178
0.537032
0.49924
0.432154
0.347523
0.287982
0.088402
0.128933
0.206248
0.306453
0.404113
0.473917
0.512332
0.533885
0.548588
0.559123
0.567924
0.576799
0.586404
0.595792
0.601379
0.595222
0.563565
0.488787
0.380355
0.311834
0.123457
0.181927
0.282049
0.3888
0.470394
0.515229
0.534916
0.543332
0.545224
0.544731
0.54616
0.552469
0.565056
0.584135
0.607303
0.626968
0.626801
0.577673
0.45407
0.359141
0.158358
0.233025
0.347064
0.446343
0.504418
0.525446
0.526603
0.518047
0.504928
0.493664
0.488095
0.491119
0.503999
0.528291
0.564284
0.608437
0.648856
0.65644
0.575064
0.436832
0.188473
0.274535
0.393207
0.477648
0.512038
0.512308
0.496629
0.473991
0.451547
0.435088
0.426252
0.4264
0.436399
0.458676
0.495947
0.549468
0.615067
0.674897
0.678499
0.540243
0.21187
0.303873
0.420882
0.489201
0.503615
0.487936
0.460518
0.430876
0.406697
0.391068
0.382969
0.381843
0.388193
0.404865
0.436079
0.486437
0.557527
0.641819
0.709915
0.668272
0.22836
0.3216
0.433969
0.488791
0.488567
0.46224
0.428669
0.39802
0.376803
0.364857
0.358854
0.356998
0.359713
0.369963
0.392741
0.435046
0.503096
0.595152
0.692624
0.745636
0.238688
0.32977
0.436909
0.482555
0.472962
0.440501
0.404885
0.376406
0.359604
0.351563
0.347398
0.344904
0.344765
0.349724
0.364236
0.396041
0.456262
0.55055
0.661692
0.740155
0.243654
0.33031
0.43267
0.47387
0.459903
0.424746
0.389209
0.363503
0.350374
0.345105
0.34199
0.338875
0.336891
0.338726
0.347767
0.37023
0.419606
0.511542
0.637024
0.733065
0.243931
0.324784
0.423395
0.464663
0.450462
0.414891
0.38011
0.35634
0.345225
0.341351
0.338756
0.335249
0.332124
0.332164
0.338145
0.354056
0.392471
0.477381
0.61234
0.729613
0.240123
0.314514
0.409593
0.454391
0.444122
0.410419
0.37657
0.353308
0.342244
0.338404
0.336054
0.332721
0.329326
0.328575
0.33311
0.34511
0.374243
0.450715
0.593086
0.727258
0.232274
0.300477
0.39226
0.443087
0.440269
0.410576
0.377842
0.353852
0.341107
0.335926
0.333304
0.330488
0.327661
0.327037
0.331111
0.341008
0.362532
0.428833
0.576443
0.727572
0.219907
0.282717
0.370154
0.427772
0.435984
0.413857
0.383993
0.359272
0.343793
0.335865
0.331859
0.329183
0.327328
0.327612
0.331925
0.340761
0.35683
0.413388
0.564533
0.729214
0.203149
0.262836
0.345902
0.409074
0.429395
0.417697
0.393369
0.369605
0.352062
0.341164
0.33503
0.331752
0.330495
0.331631
0.336043
0.343863
0.35603
0.402829
0.556072
0.732991
0.183657
0.239996
0.317296
0.383391
0.416079
0.418293
0.404008
0.385113
0.368232
0.3557
0.347453
0.342682
0.340656
0.341185
0.34442
0.350226
0.359666
0.397411
0.55225
0.738453
0.167487
0.221868
0.292499
0.35538
0.394235
0.408489
0.406358
0.396569
0.384949
0.374537
0.366406
0.360668
0.357206
0.355676
0.35664
0.359792
0.368593
0.401072
0.557559
0.748172
0.157212
0.203458
0.268762
0.326424
0.366783
0.389068
0.397784
0.397824
0.393536
0.387522
0.381596
0.376383
0.372895
0.370662
0.371864
0.375125
0.38821
0.421722
0.574409
0.761015
0.0638419
0.214267
0.253623
0.292197
0.319527
0.339199
0.352499
0.362069
0.368818
0.375071
0.380827
0.387334
0.394835
0.402707
0.414248
0.425247
0.449874
0.491334
0.620221
0.783306
0.332134
0.416402
0.468173
0.505786
0.533576
0.556114
0.574163
0.59048
0.604214
0.617747
0.629448
0.6417
0.652324
0.663923
0.673977
0.685973
0.697506
0.719916
0.757427
0.833059
)
;

boundaryField
{
    movingWall
    {
        type            fixedValue;
        value           uniform 1;
    }
    fixedWalls
    {
        type            zeroGradient;
    }
    frontAndBack
    {
        type            empty;
    }
}


// ************************************************************************* //
