/*--------------------------------*- C++ -*----------------------------------*\
| =========                 |                                                 |
| \\      /  F ield         | OpenFOAM: The Open Source CFD Toolbox           |
|  \\    /   O peration     | Version:  2212                                  |
|   \\  /    A nd           | Website:  www.openfoam.com                      |
|    \\/     M anipulation  |                                                 |
\*---------------------------------------------------------------------------*/
FoamFile
{
    version     2.0;
    format      ascii;
    arch        "LSB;label=32;scalar=64";
    class       volScalarField;
    location    "10.3";
    object      p;
}
// * * * * * * * * * * * * * * * * * * * * * * * * * * * * * * * * * * * * * //

dimensions      [0 2 -2 0 0 0 0];

internalField   nonuniform List<scalar> 
400
(
6.19589e-07
-0.00015036
-0.000534434
-0.00107163
-0.00173235
-0.00249381
-0.00318493
-0.0035975
-0.00356527
-0.00293401
-0.00154846
0.000619473
0.00324968
0.00551422
0.00653396
0.00592317
0.00400244
0.00215003
0.00111098
0.00104187
0.000116527
-5.78851e-05
-0.000376828
-0.000763999
-0.00124391
-0.00188803
-0.00270614
-0.00354345
-0.00407992
-0.00393834
-0.00284635
-0.000824783
0.00168947
0.00396105
0.00512489
0.00474337
0.00310336
0.00137518
0.000593585
0.000684542
0.000536642
0.000265177
-7.71117e-05
-0.000559466
-0.00134716
-0.00258054
-0.00421907
-0.0059837
-0.00740246
-0.00794376
-0.00726408
-0.00546188
-0.00289153
-0.000194512
0.00179192
0.00242797
0.00170909
0.000502442
-0.000395714
-0.000392466
0.00115214
0.000741461
0.000192081
-0.00077464
-0.002451
-0.00493773
-0.00799503
-0.0111203
-0.0137031
-0.0151767
-0.0152065
-0.0138396
-0.0112934
-0.00802884
-0.00475204
-0.00220955
-0.000870245
-0.000706087
-0.00128867
-0.001918
0.00158351
0.000973918
-2.2684e-05
-0.00192393
-0.00500652
-0.0091799
-0.0139134
-0.0184793
-0.0222156
-0.0246522
-0.0255279
-0.0247221
-0.0223628
-0.0187429
-0.0143042
-0.00965537
-0.00559187
-0.00294874
-0.00219312
-0.00401781
0.00129354
0.000445213
-0.00119716
-0.0043042
-0.00900479
-0.0148802
-0.0210722
-0.0267145
-0.0311903
-0.0341774
-0.0355442
-0.0351882
-0.0331957
-0.0297177
-0.0248985
-0.0189603
-0.0125048
-0.00694809
-0.00440072
-0.00652398
-4.81348e-05
-0.00114736
-0.00349924
-0.00779658
-0.0139321
-0.0211138
-0.0282353
-0.0344066
-0.0391272
-0.0422304
-0.043718
-0.0436087
-0.041971
-0.0388772
-0.0343096
-0.0281561
-0.0205383
-0.0127024
-0.00785452
-0.00774777
-0.00245028
-0.00374195
-0.00669832
-0.011913
-0.0190393
-0.026981
-0.0345029
-0.0407776
-0.0454489
-0.0484749
-0.0499375
-0.0499288
-0.0485282
-0.0457864
-0.0416606
-0.0359253
-0.0283246
-0.0193703
-0.0118219
-0.00798031
-0.00553738
-0.00691493
-0.0102633
-0.0160214
-0.0236574
-0.0318884
-0.0394498
-0.045611
-0.0501352
-0.053055
-0.054484
-0.0545241
-0.05325
-0.0507234
-0.04696
-0.0418103
-0.0348665
-0.0259467
-0.0167085
-0.00999418
-0.00873342
-0.0100855
-0.0135972
-0.0195415
-0.0272854
-0.0354857
-0.0429103
-0.0489075
-0.0533069
-0.0561645
-0.0575883
-0.0576595
-0.0564412
-0.0540084
-0.0504488
-0.0457585
-0.0396325
-0.0315229
-0.0223204
-0.0143393
-0.0115037
-0.0127575
-0.0162187
-0.0220535
-0.0296059
-0.037587
-0.0448244
-0.0506968
-0.0550398
-0.0578909
-0.0593331
-0.0594246
-0.0582155
-0.0557859
-0.0522842
-0.0478502
-0.0424294
-0.0353813
-0.027197
-0.0191786
-0.0135489
-0.0146182
-0.0178552
-0.0233145
-0.0304296
-0.038061
-0.0451155
-0.050947
-0.0553259
-0.058237
-0.0597245
-0.0598269
-0.058585
-0.0560799
-0.0525128
-0.0481359
-0.0432051
-0.037055
-0.0300308
-0.0224163
-0.0148369
-0.0155673
-0.0183511
-0.0232092
-0.029692
-0.036877
-0.0437623
-0.0496374
-0.0541517
-0.0571975
-0.0587663
-0.0588734
-0.0575543
-0.0549127
-0.0511744
-0.0466537
-0.0419638
-0.0362988
-0.0302251
-0.022895
-0.0154672
-0.0157215
-0.0177765
-0.0217453
-0.0273883
-0.0340298
-0.0407483
-0.0467379
-0.0514898
-0.0547649
-0.0564786
-0.0566196
-0.0551982
-0.0523499
-0.0483436
-0.0435798
-0.0387292
-0.0331403
-0.0280987
-0.0202785
-0.0155738
-0.0152976
-0.0163374
-0.0190869
-0.0236519
-0.0296326
-0.0361696
-0.0423334
-0.0474249
-0.0510364
-0.0529769
-0.0531802
-0.0516879
-0.0485887
-0.0442245
-0.0390522
-0.0337807
-0.0280709
-0.0242309
-0.0143845
-0.0152763
-0.0145496
-0.0142602
-0.0154253
-0.0186839
-0.0238934
-0.0302298
-0.0366127
-0.0421355
-0.0461986
-0.0484865
-0.0488636
-0.0473505
-0.0440187
-0.0392472
-0.0335178
-0.0276406
-0.0216291
-0.0180534
-0.00383288
-0.0146615
-0.0136177
-0.0117064
-0.0110806
-0.0129531
-0.0173795
-0.0235329
-0.0301689
-0.0361914
-0.0408093
-0.0435763
-0.0442593
-0.0428485
-0.0393746
-0.034184
-0.027689
-0.0206821
-0.0132764
-0.00678627
0.0160526
-0.0145828
-0.0126567
-0.00864815
-0.00623438
-0.0069098
-0.0107454
-0.0168171
-0.0237388
-0.0302972
-0.0355375
-0.0389017
-0.0400331
-0.0388758
-0.0354466
-0.029895
-0.0222755
-0.0128729
-0.000688894
0.0166941
0.0570632
-0.0117942
-0.0118304
-0.00572592
-0.00177498
-0.00176495
-0.00540455
-0.0115747
-0.0188141
-0.0258744
-0.031686
-0.0356606
-0.0373602
-0.0366837
-0.0333541
-0.0272235
-0.0175414
-0.00314874
0.0204893
0.0607033
0.129821
-0.0295164
-0.0106294
-0.000608767
0.00308077
0.00244819
-0.00155693
-0.00799911
-0.0155527
-0.0229751
-0.0291724
-0.0335303
-0.0355864
-0.0351997
-0.0319546
-0.0252269
-0.0128598
0.00942219
0.0511706
0.122877
0.226075
)
;

boundaryField
{
    movingWall
    {
        type            zeroGradient;
    }
    fixedWalls
    {
        type            zeroGradient;
    }
    frontAndBack
    {
        type            empty;
    }
}


// ************************************************************************* //
