/*--------------------------------*- C++ -*----------------------------------*\
| =========                 |                                                 |
| \\      /  F ield         | OpenFOAM: The Open Source CFD Toolbox           |
|  \\    /   O peration     | Version:  2212                                  |
|   \\  /    A nd           | Website:  www.openfoam.com                      |
|    \\/     M anipulation  |                                                 |
\*---------------------------------------------------------------------------*/
FoamFile
{
    version     2.0;
    format      ascii;
    arch        "LSB;label=32;scalar=64";
    class       surfaceScalarField;
    location    "10.3";
    object      phi;
}
// * * * * * * * * * * * * * * * * * * * * * * * * * * * * * * * * * * * * * //

dimensions      [0 3 -1 0 0 0 0];

oriented        oriented;

internalField   nonuniform List<scalar> 
760
(
1.56075e-07
-1.56131e-07
2.93621e-07
-1.37546e-07
3.09985e-07
-1.63637e-08
1.83676e-07
1.26309e-07
-1.20312e-07
3.03987e-07
-6.65928e-07
5.45617e-07
-1.48527e-06
8.19337e-07
-2.49085e-06
1.00558e-06
-3.48033e-06
9.89477e-07
-4.22032e-06
7.39993e-07
-4.54395e-06
3.2363e-07
-4.35363e-06
-1.90315e-07
-3.59375e-06
-7.5988e-07
-2.379e-06
-1.21476e-06
-9.40036e-07
-1.43896e-06
3.47729e-07
-1.28776e-06
1.08992e-06
-7.42191e-07
1.03307e-06
5.68491e-08
4.60993e-07
5.72077e-07
4.60991e-07
1.25042e-07
-2.81172e-07
7.45993e-08
-8.71037e-08
-2.97035e-07
3.5527e-07
-1.07891e-06
9.08188e-07
-2.31594e-06
1.54101e-06
-3.9274e-06
2.15708e-06
-5.66229e-06
2.55423e-06
-7.20701e-06
2.5503e-06
-8.33691e-06
2.11937e-06
-8.94225e-06
1.34534e-06
-8.97618e-06
3.57556e-07
-8.41618e-06
-7.50311e-07
-7.29361e-06
-1.88245e-06
-5.64203e-06
-2.86635e-06
-3.60582e-06
-3.47517e-06
-1.49025e-06
-3.40334e-06
1.78711e-07
-2.41115e-06
8.58976e-07
-6.23413e-07
5.25706e-07
9.05351e-07
9.86696e-07
-1.27605e-07
-1.53568e-07
-6.33938e-07
4.1923e-07
-1.62494e-06
1.34627e-06
-3.14149e-06
2.42473e-06
-5.05754e-06
3.45706e-06
-7.07338e-06
4.17292e-06
-8.87346e-06
4.35431e-06
-1.02777e-05
3.95455e-06
-1.12345e-05
3.07615e-06
-1.1736e-05
1.84689e-06
-1.17301e-05
3.51603e-07
-1.12712e-05
-1.20922e-06
-1.03385e-05
-2.81514e-06
-8.87783e-06
-4.32699e-06
-6.86958e-06
-5.48342e-06
-4.40322e-06
-5.8697e-06
-1.87875e-06
-4.93562e-06
-8.64056e-08
-2.41576e-06
2.94689e-07
5.24257e-07
1.28139e-06
-5.00533e-07
3.46965e-07
-1.56001e-06
1.4787e-06
-3.11952e-06
2.90579e-06
-5.08143e-06
4.38664e-06
-7.18532e-06
5.56095e-06
-9.12332e-06
6.11092e-06
-1.06932e-05
5.92415e-06
-1.18524e-05
5.11375e-06
-1.2629e-05
3.85277e-06
-1.30576e-05
2.27553e-06
-1.31227e-05
4.16651e-07
-1.28832e-05
-1.44873e-06
-1.23004e-05
-3.39796e-06
-1.12725e-05
-5.35489e-06
-9.66876e-06
-7.08711e-06
-7.36464e-06
-8.17382e-06
-4.39877e-06
-7.9015e-06
-1.37807e-06
-5.43646e-06
1.20733e-07
-9.74545e-07
1.40212e-06
-8.61958e-07
1.20892e-06
-2.36174e-06
2.97849e-06
-4.23285e-06
4.7769e-06
-6.28023e-06
6.43402e-06
-8.22266e-06
7.50338e-06
-9.83741e-06
7.72567e-06
-1.10478e-05
7.13457e-06
-1.18804e-05
5.94637e-06
-1.2397e-05
4.36937e-06
-1.26702e-05
2.54874e-06
-1.27908e-05
5.37237e-07
-1.27452e-05
-1.49437e-06
-1.25245e-05
-3.61862e-06
-1.20499e-05
-5.82947e-06
-1.11352e-05
-8.00182e-06
-9.4925e-06
-9.81657e-06
-6.82224e-06
-1.05718e-05
-3.22301e-06
-9.03569e-06
-2.61171e-07
-3.93638e-06
1.14095e-06
-1.08712e-06
2.29604e-06
-2.78468e-06
4.67605e-06
-4.67851e-06
6.67073e-06
-6.53661e-06
8.29212e-06
-8.13463e-06
9.10139e-06
-9.34155e-06
8.9326e-06
-1.01534e-05
7.9464e-06
-1.06353e-05
6.42824e-06
-1.08773e-05
4.61146e-06
-1.09793e-05
2.65071e-06
-1.10625e-05
6.20443e-07
-1.11131e-05
-1.44383e-06
-1.11472e-05
-3.58449e-06
-1.11361e-05
-5.84062e-06
-1.09263e-05
-8.21153e-06
-1.01911e-05
-1.05518e-05
-8.43606e-06
-1.23268e-05
-5.24504e-06
-1.22267e-05
-1.15867e-06
-8.02276e-06
-1.77218e-08
-1.11124e-06
3.40728e-06
-2.75937e-06
6.32419e-06
-4.45739e-06
8.36875e-06
-5.99346e-06
9.82819e-06
-7.2075e-06
1.03154e-05
-8.03717e-06
9.76227e-06
-8.52028e-06
8.42951e-06
-8.74378e-06
6.65174e-06
-8.81114e-06
4.67882e-06
-8.81906e-06
2.65863e-06
-8.84961e-06
6.50993e-07
-8.92096e-06
-1.37248e-06
-9.05307e-06
-3.45238e-06
-9.2576e-06
-5.63608e-06
-9.47859e-06
-7.99054e-06
-9.48529e-06
-1.05451e-05
-8.759e-06
-1.30531e-05
-6.54123e-06
-1.44445e-05
-2.42496e-06
-1.2139e-05
-2.44268e-06
-9.36619e-07
4.3439e-06
-2.34898e-06
7.73655e-06
-3.73694e-06
9.75671e-06
-4.917e-06
1.10083e-05
-5.78822e-06
1.11866e-05
-6.33381e-06
1.03079e-05
-6.61098e-06
8.70668e-06
-6.71072e-06
6.75148e-06
-6.72885e-06
4.69696e-06
-6.73807e-06
2.66784e-06
-6.77369e-06
6.86616e-07
-6.8525e-06
-1.29367e-06
-6.99542e-06
-3.30946e-06
-7.23309e-06
-5.39841e-06
-7.58313e-06
-7.6405e-06
-7.95555e-06
-1.01727e-05
-7.94134e-06
-1.30673e-05
-6.72253e-06
-1.56633e-05
-3.58983e-06
-1.52717e-05
-6.03251e-06
-6.26054e-07
4.96995e-06
-1.68973e-06
8.80023e-06
-2.72398e-06
1.0791e-05
-3.56418e-06
1.18485e-05
-4.15485e-06
1.17773e-05
-4.50617e-06
1.06592e-05
-4.67707e-06
8.87758e-06
-4.74588e-06
6.8203e-06
-4.7847e-06
4.73578e-06
-4.83673e-06
2.71986e-06
-4.91176e-06
7.61654e-07
-5.01597e-06
-1.18946e-06
-5.15909e-06
-3.16634e-06
-5.36966e-06
-5.18784e-06
-5.70284e-06
-7.30732e-06
-6.17283e-06
-9.70267e-06
-6.56297e-06
-1.26772e-05
-6.1329e-06
-1.60933e-05
-3.92708e-06
-1.74776e-05
-9.95959e-06
-2.33267e-07
5.20322e-06
-8.95015e-07
9.46197e-06
-1.56757e-06
1.14635e-05
-2.09811e-06
1.2379e-05
-2.459e-06
1.21382e-05
-2.67453e-06
1.08747e-05
-2.79292e-06
8.99597e-06
-2.86736e-06
6.89473e-06
-2.94229e-06
4.81071e-06
-3.03952e-06
2.8171e-06
-3.16175e-06
8.83888e-07
-3.30847e-06
-1.04275e-06
-3.47968e-06
-2.99512e-06
-3.68744e-06
-4.98008e-06
-3.98207e-06
-7.01269e-06
-4.44603e-06
-9.23871e-06
-5.02801e-06
-1.20952e-05
-5.12734e-06
-1.5994e-05
-3.56074e-06
-1.90442e-05
-1.35203e-05
1.63763e-07
5.03946e-06
-7.04555e-08
9.69619e-06
-4.03927e-07
1.1797e-05
-6.55461e-07
1.26305e-05
-8.10993e-07
1.22937e-05
-9.01665e-07
1.09654e-05
-9.66833e-07
9.06113e-06
-1.03835e-06
6.96625e-06
-1.13274e-06
4.9051e-06
-1.25777e-06
2.94213e-06
-1.41603e-06
1.04214e-06
-1.60962e-06
-8.4915e-07
-1.83697e-06
-2.76777e-06
-2.0957e-06
-4.72136e-06
-2.41295e-06
-6.69544e-06
-2.8801e-06
-8.77156e-06
-3.56273e-06
-1.14126e-05
-4.02714e-06
-1.55296e-05
-3.02686e-06
-2.00444e-05
-1.65472e-05
5.02478e-07
4.53698e-06
7.00717e-07
9.49795e-06
7.44117e-07
1.17536e-05
7.79868e-07
1.25948e-05
8.2483e-07
1.22488e-05
8.53703e-07
1.09365e-05
8.46853e-07
9.06798e-06
7.96098e-07
7.017e-06
7.02231e-07
4.99897e-06
5.66942e-07
3.07742e-06
3.84996e-07
1.22409e-06
1.50201e-07
-6.14354e-07
-1.3898e-07
-2.47859e-06
-4.89186e-07
-4.37116e-06
-9.03926e-07
-6.2807e-06
-1.42655e-06
-8.24893e-06
-2.20455e-06
-1.06346e-05
-2.95402e-06
-1.47801e-05
-2.46097e-06
-2.05375e-05
-1.90082e-05
7.5978e-07
3.7772e-06
1.35957e-06
8.89816e-06
1.75406e-06
1.13591e-05
2.08513e-06
1.22637e-05
2.35967e-06
1.19742e-05
2.54758e-06
1.07486e-05
2.64078e-06
8.97478e-06
2.64998e-06
7.00781e-06
2.58912e-06
5.05983e-06
2.46452e-06
3.20202e-06
2.26853e-06
1.42008e-06
1.98705e-06
-3.32869e-07
1.62076e-06
-2.1123e-06
1.16478e-06
-3.91518e-06
6.14895e-07
-5.73082e-06
-7.99645e-08
-7.55407e-06
-9.53712e-07
-9.76081e-06
-1.91685e-06
-1.3817e-05
-1.92415e-06
-2.05302e-05
-2.09323e-05
8.75538e-07
2.90166e-06
1.81903e-06
7.95467e-06
2.56409e-06
1.0614e-05
3.20818e-06
1.16196e-05
3.75878e-06
1.14236e-05
4.17269e-06
1.03347e-05
4.43412e-06
8.71336e-06
4.557e-06
6.88492e-06
4.56413e-06
5.0527e-06
4.47046e-06
3.29569e-06
4.27373e-06
1.61681e-06
3.94128e-06
-4.17718e-10
3.49392e-06
-1.66494e-06
2.90604e-06
-3.32729e-06
2.17892e-06
-5.0037e-06
1.33178e-06
-6.70693e-06
2.74306e-07
-8.70334e-06
-9.53174e-07
-1.25895e-05
-1.4249e-06
-2.00585e-05
-2.23572e-05
8.11419e-07
2.09024e-06
1.965e-06
6.80109e-06
3.01265e-06
9.56638e-06
3.99072e-06
1.06416e-05
4.8723e-06
1.0542e-05
5.5914e-06
9.6156e-06
6.10894e-06
8.19582e-06
6.42784e-06
6.56602e-06
6.5688e-06
4.91174e-06
6.54961e-06
3.31488e-06
6.36838e-06
1.79804e-06
6.0224e-06
3.45558e-07
5.47861e-06
-1.12115e-06
4.74453e-06
-2.59321e-06
3.81237e-06
-4.07154e-06
2.7112e-06
-5.60576e-06
1.40168e-06
-7.39382e-06
-1.48943e-07
-1.10389e-05
-9.09051e-07
-1.92983e-05
-2.32663e-05
5.81443e-07
1.5088e-06
1.77024e-06
5.61229e-06
3.1154e-06
8.22122e-06
4.47309e-06
9.28387e-06
5.74582e-06
9.26932e-06
6.83498e-06
8.52643e-06
7.67517e-06
7.35564e-06
8.25366e-06
5.98753e-06
8.58271e-06
4.5827e-06
8.67886e-06
3.21873e-06
8.54871e-06
1.92819e-06
8.18935e-06
7.04923e-07
7.55662e-06
-4.88419e-07
6.668e-06
-1.7046e-06
5.51089e-06
-2.91442e-06
4.12633e-06
-4.2212e-06
2.58845e-06
-5.85594e-06
9.69043e-07
-9.4195e-06
-1.38937e-07
-1.81904e-05
-2.34052e-05
1.54326e-07
1.35447e-06
1.04866e-06
4.71795e-06
2.53348e-06
6.73641e-06
4.26357e-06
7.55378e-06
5.99356e-06
7.53933e-06
7.53568e-06
6.98431e-06
8.78724e-06
6.10408e-06
9.71839e-06
5.05638e-06
1.03241e-05
3.97695e-06
1.06158e-05
2.9271e-06
1.05992e-05
1.94479e-06
1.02798e-05
1.02426e-06
9.61137e-06
1.80056e-07
8.61642e-06
-7.09649e-07
7.28472e-06
-1.58273e-06
5.66852e-06
-2.605e-06
3.92905e-06
-4.11647e-06
2.25067e-06
-7.74112e-06
6.56917e-07
-1.65966e-05
-2.27483e-05
-5.19146e-07
1.87362e-06
2.03718e-07
3.99509e-06
1.76787e-06
5.17225e-06
3.84143e-06
5.48022e-06
6.00716e-06
5.3736e-06
7.97799e-06
5.01347e-06
9.61731e-06
4.46476e-06
1.08835e-05
3.79019e-06
1.1759e-05
3.10146e-06
1.22598e-05
2.42625e-06
1.23895e-05
1.81516e-06
1.21675e-05
1.24617e-06
1.16184e-05
7.29239e-07
1.07121e-05
1.96593e-07
9.45359e-06
-3.24192e-07
7.91658e-06
-1.06799e-06
6.28701e-06
-2.48689e-06
4.46679e-06
-5.9209e-06
2.05975e-06
-1.41896e-05
-2.06885e-05
-4.18157e-06
6.05519e-06
-3.64415e-06
3.45767e-06
-1.24382e-06
2.77192e-06
1.56264e-06
2.67377e-06
4.31121e-06
2.62503e-06
6.85482e-06
2.46987e-06
9.07973e-06
2.23984e-06
1.09255e-05
1.94447e-06
1.23733e-05
1.65356e-06
1.34503e-05
1.34926e-06
1.41734e-05
1.09209e-06
1.45873e-05
8.32249e-07
1.46797e-05
6.36898e-07
1.44594e-05
4.16904e-07
1.39225e-05
2.12664e-07
1.3085e-05
-2.30472e-07
1.19347e-05
-1.33658e-06
1.01167e-05
-4.10291e-06
5.63959e-06
-9.71247e-06
-1.50489e-05
6.05519e-06
9.51286e-06
1.22848e-05
1.49585e-05
1.75836e-05
2.00534e-05
2.22933e-05
2.42378e-05
2.58913e-05
2.72406e-05
2.83327e-05
2.91649e-05
2.98018e-05
3.02187e-05
3.04314e-05
3.02009e-05
2.88643e-05
2.47614e-05
1.50489e-05
)
;

boundaryField
{
    movingWall
    {
        type            calculated;
        value           uniform 0;
    }
    fixedWalls
    {
        type            calculated;
        value           uniform 0;
    }
    frontAndBack
    {
        type            empty;
        value           nonuniform List<scalar> 0();
    }
}


// ************************************************************************* //
