/*--------------------------------*- C++ -*----------------------------------*\
| =========                 |                                                 |
| \\      /  F ield         | OpenFOAM: The Open Source CFD Toolbox           |
|  \\    /   O peration     | Version:  2212                                  |
|   \\  /    A nd           | Website:  www.openfoam.com                      |
|    \\/     M anipulation  |                                                 |
\*---------------------------------------------------------------------------*/
FoamFile
{
    version     2.0;
    format      ascii;
    arch        "LSB;label=32;scalar=64";
    class       volVectorField;
    location    "10.3";
    object      U;
}
// * * * * * * * * * * * * * * * * * * * * * * * * * * * * * * * * * * * * * //

dimensions      [0 1 -1 0 0 0 0];

internalField   nonuniform List<vector> 
400
(
(0.00168171 -0.00168384 0)
(0.00483855 -0.00189228 0)
(0.00659104 -0.00120074 0)
(0.00567473 -0.000575131 0)
(0.00157212 0.000183984 0)
(-0.00682924 0.00173938 0)
(-0.0206084 0.00478638 0)
(-0.0395415 0.00873612 0)
(-0.0608118 0.0112927 0)
(-0.0791385 0.0105126 0)
(-0.0898137 0.00677451 0)
(-0.0904642 0.00166893 0)
(-0.0802267 -0.00361657 0)
(-0.0599943 -0.00827506 0)
(-0.033521 -0.0108472 0)
(-0.00529259 -0.00979533 0)
(0.016724 -0.00477304 0)
(0.0244709 0.00277692 0)
(0.0161789 0.00647231 0)
(0.00431656 0.00471716 0)
(0.00172046 -0.00506529 0)
(0.0031626 -0.00403251 0)
(-0.000417155 0.000587745 0)
(-0.01133 0.00644172 0)
(-0.0314263 0.0140502 0)
(-0.0611506 0.0237743 0)
(-0.0968479 0.0330622 0)
(-0.131462 0.0370933 0)
(-0.158975 0.0335179 0)
(-0.176107 0.0234016 0)
(-0.181454 0.00910923 0)
(-0.175082 -0.00699037 0)
(-0.157564 -0.0231748 0)
(-0.129653 -0.0369149 0)
(-0.0936155 -0.0445665 0)
(-0.0521947 -0.0418394 0)
(-0.0113999 -0.0263344 0)
(0.01689 -0.00127888 0)
(0.0178724 0.0162242 0)
(0.00554227 0.0148202 0)
(-0.000239606 -0.00578053 0)
(-0.00538124 0.000801674 0)
(-0.0196097 0.0142995 0)
(-0.0445049 0.0312367 0)
(-0.080343 0.0494468 0)
(-0.122208 0.0643224 0)
(-0.162355 0.0705484 0)
(-0.195278 0.0660303 0)
(-0.218871 0.0521921 0)
(-0.23254 0.0315342 0)
(-0.236296 0.00641607 0)
(-0.23081 -0.0211144 0)
(-0.216395 -0.0488747 0)
(-0.192549 -0.0732292 0)
(-0.15901 -0.089029 0)
(-0.115744 -0.0892316 0)
(-0.0645641 -0.06703 0)
(-0.0138212 -0.0226644 0)
(0.00948161 0.0179191 0)
(0.00415546 0.0235805 0)
(-0.00347203 0.000453165 0)
(-0.0175153 0.0172407 0)
(-0.0435178 0.0415021 0)
(-0.0796856 0.0681974 0)
(-0.122965 0.0911646 0)
(-0.16586 0.103853 0)
(-0.201933 0.102907 0)
(-0.229258 0.0896745 0)
(-0.248098 0.0673279 0)
(-0.259053 0.0385802 0)
(-0.262961 0.00531687 0)
(-0.260628 -0.0311189 0)
(-0.251995 -0.0684581 0)
(-0.236015 -0.103747 0)
(-0.210702 -0.131495 0)
(-0.173353 -0.142895 0)
(-0.121406 -0.125768 0)
(-0.0568458 -0.0708539 0)
(-0.000986895 0.00356688 0)
(0.0047423 0.0282412 0)
(-0.00666306 0.0147832 0)
(-0.0287314 0.0441128 0)
(-0.0632938 0.0770991 0)
(-0.104469 0.108927 0)
(-0.147291 0.131218 0)
(-0.184594 0.138206 0)
(-0.212935 0.129512 0)
(-0.23272 0.108753 0)
(-0.245238 0.079801 0)
(-0.252215 0.0454488 0)
(-0.255334 0.00723983 0)
(-0.255516 -0.034 0)
(-0.252536 -0.0770873 0)
(-0.245853 -0.120693 0)
(-0.232656 -0.16083 0)
(-0.208332 -0.18904 0)
(-0.166828 -0.189989 0)
(-0.103453 -0.142884 0)
(-0.0221828 -0.0388537 0)
(0.00738214 0.027102 0)
(-0.00851152 0.0348753 0)
(-0.0351803 0.0766442 0)
(-0.0730993 0.114963 0)
(-0.113275 0.147716 0)
(-0.150542 0.166049 0)
(-0.179408 0.165986 0)
(-0.198935 0.149774 0)
(-0.210683 0.122514 0)
(-0.216634 0.0885506 0)
(-0.219266 0.0508726 0)
(-0.220535 0.010955 0)
(-0.221436 -0.0307601 0)
(-0.222167 -0.0747253 0)
(-0.222839 -0.121298 0)
(-0.221266 -0.169245 0)
(-0.212362 -0.213078 0)
(-0.188041 -0.238606 0)
(-0.139698 -0.218555 0)
(-0.0628533 -0.118948 0)
(0.00584947 0.014204 0)
(-0.00829388 0.05701 0)
(-0.0353463 0.110021 0)
(-0.0718458 0.150511 0)
(-0.107091 0.181206 0)
(-0.13673 0.193902 0)
(-0.157139 0.186506 0)
(-0.169052 0.163341 0)
(-0.174592 0.130555 0)
(-0.176167 0.0929079 0)
(-0.176267 0.0534126 0)
(-0.176381 0.0133143 0)
(-0.177181 -0.0273131 0)
(-0.179213 -0.0695825 0)
(-0.18302 -0.114737 0)
(-0.187967 -0.163871 0)
(-0.190436 -0.21584 0)
(-0.182547 -0.261691 0)
(-0.154295 -0.275208 0)
(-0.0994115 -0.205929 0)
(-0.00890853 -0.0146251 0)
(-0.00613675 0.0776088 0)
(-0.0297978 0.140577 0)
(-0.0614379 0.181252 0)
(-0.0899131 0.208372 0)
(-0.111926 0.214962 0)
(-0.125466 0.200635 0)
(-0.132158 0.171402 0)
(-0.134312 0.134237 0)
(-0.134376 0.09412 0)
(-0.134277 0.0537538 0)
(-0.134684 0.0138634 0)
(-0.135778 -0.0258917 0)
(-0.13801 -0.0664899 0)
(-0.142072 -0.10911 0)
(-0.148584 -0.155699 0)
(-0.156247 -0.208615 0)
(-0.159101 -0.26594 0)
(-0.14677 -0.308174 0)
(-0.11227 -0.277243 0)
(-0.0309697 -0.0753453 0)
(-0.00273086 0.0936312 0)
(-0.0204237 0.165672 0)
(-0.0451637 0.205648 0)
(-0.0663633 0.228644 0)
(-0.0816354 0.229606 0)
(-0.0901286 0.209619 0)
(-0.093763 0.175866 0)
(-0.094677 0.135827 0)
(-0.0949561 0.0944795 0)
(-0.0957528 0.0540353 0)
(-0.0971033 0.0145942 0)
(-0.0989134 -0.024588 0)
(-0.101349 -0.0642411 0)
(-0.104916 -0.105015 0)
(-0.11076 -0.148498 0)
(-0.11962 -0.198618 0)
(-0.128371 -0.259846 0)
(-0.126542 -0.323508 0)
(-0.107494 -0.334811 0)
(-0.0373548 -0.163463 0)
(0.00121933 0.10278 0)
(-0.00894623 0.183517 0)
(-0.0256524 0.223206 0)
(-0.0396547 0.242831 0)
(-0.0491366 0.239597 0)
(-0.0540113 0.215623 0)
(-0.0559824 0.178866 0)
(-0.0566966 0.137168 0)
(-0.0576587 0.0954114 0)
(-0.0594015 0.0552753 0)
(-0.0616949 0.0163105 0)
(-0.0643954 -0.0224944 0)
(-0.0674941 -0.0617456 0)
(-0.0711691 -0.101642 0)
(-0.0763525 -0.14285 0)
(-0.0846139 -0.188994 0)
(-0.0960805 -0.248414 0)
(-0.100662 -0.324376 0)
(-0.0951821 -0.372279 0)
(-0.0309262 -0.242618 0)
(0.00511913 0.103947 0)
(0.00295745 0.19312 0)
(-0.00539165 0.233703 0)
(-0.01251 0.250866 0)
(-0.016902 0.244782 0)
(-0.0187899 0.218564 0)
(-0.0194789 0.180502 0)
(-0.0200078 0.138425 0)
(-0.0213066 0.0969665 0)
(-0.0235428 0.0574262 0)
(-0.0264319 0.0190826 0)
(-0.0299155 -0.0191692 0)
(-0.03401 -0.0579838 0)
(-0.0386538 -0.097412 0)
(-0.0443922 -0.137371 0)
(-0.052452 -0.180242 0)
(-0.0657684 -0.235716 0)
(-0.0742264 -0.318155 0)
(-0.0812032 -0.396785 0)
(-0.0229434 -0.30718 0)
(0.00845899 0.0974722 0)
(0.0142229 0.194113 0)
(0.0141059 0.237227 0)
(0.0137114 0.253647 0)
(0.0143344 0.246568 0)
(0.0155315 0.21986 0)
(0.0163913 0.181811 0)
(0.0164451 0.140095 0)
(0.0153074 0.0991543 0)
(0.0130304 0.0602263 0)
(0.00986258 0.0226269 0)
(0.00575424 -0.0147531 0)
(0.000562285 -0.0526985 0)
(-0.00556362 -0.0913051 0)
(-0.0130318 -0.130201 0)
(-0.021979 -0.170383 0)
(-0.0377196 -0.220761 0)
(-0.0487299 -0.304516 0)
(-0.0679047 -0.408528 0)
(-0.0144592 -0.360062 0)
(0.0103309 0.0844916 0)
(0.0234225 0.186517 0)
(0.0310874 0.23335 0)
(0.0370181 0.250192 0)
(0.0426809 0.243354 0)
(0.0476367 0.217569 0)
(0.0510748 0.180805 0)
(0.0527514 0.140398 0)
(0.0526206 0.100635 0)
(0.050892 0.0628239 0)
(0.0477826 0.0264575 0)
(0.0431745 -0.00952111 0)
(0.0369004 -0.0460028 0)
(0.0290843 -0.0831422 0)
(0.0189281 -0.120571 0)
(0.00760133 -0.158515 0)
(-0.0118144 -0.204474 0)
(-0.0242367 -0.286518 0)
(-0.0558429 -0.411034 0)
(-0.00613718 -0.401909 0)
(0.00987959 0.0672384 0)
(0.0290347 0.170706 0)
(0.044363 0.222258 0)
(0.0569077 0.241357 0)
(0.0682036 0.236431 0)
(0.0778929 0.213069 0)
(0.0851164 0.178775 0)
(0.0895732 0.140433 0)
(0.0913398 0.102271 0)
(0.0907159 0.065832 0)
(0.0880312 0.03098 0)
(0.0829819 -0.00330252 0)
(0.0754666 -0.0375491 0)
(0.0657733 -0.0723346 0)
(0.0525195 -0.107463 0)
(0.0375839 -0.142814 0)
(0.0131392 -0.184301 0)
(8.57384e-05 -0.263279 0)
(-0.0447948 -0.406733 0)
(0.00276647 -0.436285 0)
(0.00693088 0.0493981 0)
(0.0293698 0.14898 0)
(0.0511223 0.203665 0)
(0.0700045 0.224587 0)
(0.0874842 0.221732 0)
(0.103182 0.201573 0)
(0.115856 0.170978 0)
(0.124824 0.136086 0)
(0.129998 0.100886 0)
(0.131621 0.0670551 0)
(0.129958 0.034844 0)
(0.125034 0.00342855 0)
(0.116402 -0.0274715 0)
(0.104668 -0.058714 0)
(0.0875709 -0.0903408 0)
(0.0683774 -0.122962 0)
(0.0383085 -0.160882 0)
(0.0238671 -0.237178 0)
(-0.0344362 -0.398979 0)
(0.0134763 -0.464441 0)
(0.00238749 0.034626 0)
(0.0236454 0.123908 0)
(0.050968 0.179967 0)
(0.0767053 0.202971 0)
(0.101376 0.202661 0)
(0.124264 0.18626 0)
(0.143723 0.160203 0)
(0.158535 0.12977 0)
(0.168284 0.098575 0)
(0.173177 0.0683063 0)
(0.173153 0.0395611 0)
(0.168925 0.011934 0)
(0.159087 -0.0149171 0)
(0.145352 -0.0417257 0)
(0.124044 -0.0687715 0)
(0.100499 -0.0975756 0)
(0.0646376 -0.132731 0)
(0.047015 -0.207472 0)
(-0.0227003 -0.387093 0)
(0.0285349 -0.485565 0)
(-0.00342637 0.0286118 0)
(0.010075 0.101504 0)
(0.0371198 0.148708 0)
(0.0689908 0.169478 0)
(0.101891 0.170701 0)
(0.133617 0.15841 0)
(0.161621 0.137974 0)
(0.184172 0.113569 0)
(0.200225 0.0882789 0)
(0.210153 0.0636342 0)
(0.213079 0.0403802 0)
(0.210826 0.0183996 0)
(0.20056 -0.0026825 0)
(0.185925 -0.0233225 0)
(0.161105 -0.043991 0)
(0.134481 -0.0677545 0)
(0.0929419 -0.101706 0)
(0.0698831 -0.180024 0)
(-0.00436374 -0.370058 0)
(0.0521631 -0.491644 0)
(-0.0140128 0.0185156 0)
(-0.00751614 0.0881757 0)
(0.0192234 0.124199 0)
(0.0564626 0.137328 0)
(0.0976233 0.136922 0)
(0.138013 0.12774 0)
(0.174273 0.113083 0)
(0.204124 0.0953025 0)
(0.226024 0.0768279 0)
(0.241121 0.0586766 0)
(0.247158 0.0418014 0)
(0.248074 0.0261049 0)
(0.238733 0.0117388 0)
(0.226914 -0.00205432 0)
(0.201909 -0.0160961 0)
(0.177919 -0.0350331 0)
(0.133565 -0.0678114 0)
(0.107845 -0.146006 0)
(0.0374748 -0.32612 0)
(0.0923685 -0.455871 0)
(-0.10602 0.0824168 0)
(-0.0777606 0.0689899 0)
(-0.0485678 0.0733711 0)
(0.00378381 0.0778926 0)
(0.0573034 0.0782275 0)
(0.11004 0.0739638 0)
(0.157214 0.0666284 0)
(0.199581 0.0572231 0)
(0.231696 0.0475462 0)
(0.259851 0.0378885 0)
(0.275579 0.0292199 0)
(0.290735 0.0212326 0)
(0.291086 0.0144739 0)
(0.295194 0.00808981 0)
(0.278888 0.00112101 0)
(0.271669 -0.0100164 0)
(0.232354 -0.0355709 0)
(0.218146 -0.0954203 0)
(0.150208 -0.229723 0)
(0.170672 -0.341455 0)
(0.129969 0.103744 0)
(0.158319 0.0752272 0)
(0.212164 0.0532269 0)
(0.270672 0.0416222 0)
(0.323249 0.0359127 0)
(0.375692 0.0319485 0)
(0.420289 0.0289165 0)
(0.46561 0.025581 0)
(0.498708 0.0229029 0)
(0.533959 0.0197104 0)
(0.553398 0.0175474 0)
(0.579209 0.0146094 0)
(0.585346 0.0131644 0)
(0.603684 0.0103454 0)
(0.595103 0.00938296 0)
(0.603602 0.00499931 0)
(0.567792 8.88294e-05 0)
(0.547612 -0.0183161 0)
(0.43569 -0.0504144 0)
(0.336753 -0.101386 0)
)
;

boundaryField
{
    movingWall
    {
        type            fixedValue;
        value           uniform (1 0 0);
    }
    fixedWalls
    {
        type            noSlip;
    }
    frontAndBack
    {
        type            empty;
    }
}


// ************************************************************************* //
