/*--------------------------------*- C++ -*----------------------------------*\
| =========                 |                                                 |
| \\      /  F ield         | OpenFOAM: The Open Source CFD Toolbox           |
|  \\    /   O peration     | Version:  2212                                  |
|   \\  /    A nd           | Website:  www.openfoam.com                      |
|    \\/     M anipulation  |                                                 |
\*---------------------------------------------------------------------------*/
FoamFile
{
    version     2.0;
    format      ascii;
    arch        "LSB;label=32;scalar=64";
    class       volScalarField;
    location    "16.4";
    object      T;
}
// * * * * * * * * * * * * * * * * * * * * * * * * * * * * * * * * * * * * * //

dimensions      [0 0 0 1 0 0 0];

internalField   nonuniform List<scalar> 
400
(
0.970573
0.971191
0.972444
0.974299
0.976466
0.978448
0.979875
0.980709
0.981163
0.981472
0.981753
0.982045
0.982357
0.982681
0.982966
0.983131
0.983046
0.982569
0.98178
0.981134
0.971362
0.972119
0.973637
0.975811
0.978116
0.979821
0.98066
0.980954
0.981055
0.98113
0.981287
0.981586
0.982049
0.98265
0.983268
0.983721
0.983724
0.983067
0.982028
0.981281
0.972592
0.973611
0.975502
0.97778
0.979577
0.980339
0.980308
0.979936
0.979471
0.97912
0.979059
0.979415
0.98019
0.981361
0.982718
0.983951
0.984544
0.983983
0.982483
0.981554
0.973798
0.975087
0.97715
0.978997
0.979782
0.979421
0.978398
0.977096
0.975811
0.974861
0.97449
0.974902
0.976045
0.977944
0.98034
0.98286
0.984818
0.98531
0.983651
0.98219
0.974725
0.976168
0.978068
0.97909
0.978672
0.977097
0.974895
0.972471
0.970255
0.968639
0.967909
0.968304
0.96976
0.972329
0.975778
0.979734
0.983505
0.98602
0.985747
0.98337
0.975333
0.976767
0.978229
0.978239
0.976574
0.973742
0.970311
0.966789
0.963717
0.961513
0.960466
0.960768
0.962414
0.965431
0.969668
0.974806
0.980235
0.984951
0.987302
0.985096
0.975667
0.976943
0.977809
0.976793
0.973961
0.969967
0.96544
0.961018
0.957306
0.95471
0.953472
0.953691
0.955398
0.958603
0.96325
0.969141
0.975784
0.982251
0.987057
0.987571
0.975803
0.97685
0.977119
0.975201
0.971367
0.96638
0.960974
0.955901
0.951786
0.948993
0.947681
0.947867
0.949556
0.952745
0.957448
0.963644
0.971067
0.978879
0.985544
0.988895
0.975806
0.976607
0.976352
0.973713
0.969102
0.963375
0.957355
0.951863
0.947518
0.944631
0.943289
0.943461
0.945115
0.948213
0.952763
0.958876
0.966623
0.97545
0.983606
0.988291
0.975725
0.976324
0.975711
0.972623
0.967511
0.961293
0.95487
0.949108
0.944613
0.941647
0.940251
0.940384
0.941998
0.945017
0.949381
0.955198
0.962839
0.972278
0.981851
0.987834
0.975589
0.976049
0.975238
0.971935
0.966582
0.960141
0.95355
0.947673
0.943088
0.940031
0.938534
0.938569
0.9401
0.943034
0.947231
0.952692
0.959926
0.96953
0.980221
0.987542
0.975416
0.975812
0.974996
0.971772
0.966487
0.960091
0.953534
0.947654
0.943011
0.939845
0.938207
0.938088
0.93946
0.942236
0.946233
0.951309
0.957947
0.967358
0.978915
0.987382
0.9752
0.975598
0.974904
0.971969
0.967007
0.960916
0.954618
0.948912
0.944331
0.941124
0.939365
0.939058
0.940194
0.942693
0.946368
0.951001
0.956909
0.965769
0.977885
0.987365
0.974929
0.975392
0.974954
0.972542
0.968199
0.962699
0.956905
0.951554
0.947153
0.943967
0.942102
0.941561
0.942369
0.944446
0.947631
0.951675
0.956761
0.964846
0.97722
0.987462
0.974574
0.975135
0.97495
0.973108
0.969536
0.964854
0.959821
0.955086
0.9511
0.948117
0.94626
0.945529
0.94596
0.947495
0.950007
0.953326
0.957534
0.96458
0.976875
0.987678
0.974153
0.974839
0.974983
0.973808
0.971173
0.96752
0.963466
0.959547
0.95615
0.9535
0.951716
0.95082
0.950821
0.951706
0.953399
0.95582
0.959076
0.964868
0.976864
0.988017
0.973734
0.97441
0.974659
0.973968
0.972198
0.969637
0.966716
0.963828
0.961254
0.959168
0.957648
0.956737
0.956407
0.956694
0.957591
0.95909
0.961488
0.966178
0.977566
0.988595
0.973439
0.97426
0.974761
0.97448
0.97348
0.971935
0.970094
0.968199
0.966425
0.964904
0.963684
0.962823
0.962312
0.962185
0.962523
0.963294
0.965056
0.96866
0.978877
0.989324
0.969431
0.973364
0.973349
0.973206
0.972667
0.97195
0.971133
0.970373
0.969675
0.96916
0.968782
0.96861
0.968619
0.968795
0.969273
0.969886
0.971457
0.974193
0.981939
0.990572
0.97853
0.981125
0.982513
0.983345
0.983789
0.984066
0.984211
0.984358
0.984462
0.984626
0.984771
0.98499
0.985194
0.985472
0.98574
0.986112
0.986588
0.987593
0.989597
0.993125
)
;

boundaryField
{
    movingWall
    {
        type            fixedValue;
        value           uniform 1;
    }
    fixedWalls
    {
        type            zeroGradient;
    }
    frontAndBack
    {
        type            empty;
    }
}


// ************************************************************************* //
