/*--------------------------------*- C++ -*----------------------------------*\
| =========                 |                                                 |
| \\      /  F ield         | OpenFOAM: The Open Source CFD Toolbox           |
|  \\    /   O peration     | Version:  2212                                  |
|   \\  /    A nd           | Website:  www.openfoam.com                      |
|    \\/     M anipulation  |                                                 |
\*---------------------------------------------------------------------------*/
FoamFile
{
    version     2.0;
    format      ascii;
    arch        "LSB;label=32;scalar=64";
    class       volScalarField;
    location    "19";
    object      T;
}
// * * * * * * * * * * * * * * * * * * * * * * * * * * * * * * * * * * * * * //

dimensions      [0 0 0 1 0 0 0];

internalField   nonuniform List<scalar> 
400
(
0.98217
0.982542
0.983296
0.984413
0.985717
0.986912
0.987773
0.988278
0.988553
0.988741
0.988912
0.989089
0.98928
0.989477
0.98965
0.989752
0.989701
0.989414
0.988937
0.988547
0.982644
0.9831
0.984014
0.985322
0.986711
0.98774
0.988247
0.988425
0.988486
0.988531
0.988626
0.988808
0.98909
0.989456
0.989833
0.990109
0.990113
0.989716
0.989088
0.988636
0.983384
0.983998
0.985136
0.986509
0.987592
0.988051
0.988031
0.987803
0.98752
0.987306
0.987269
0.987485
0.987956
0.988669
0.989495
0.990247
0.99061
0.990272
0.989364
0.988802
0.984109
0.984885
0.986128
0.98724
0.987712
0.987491
0.986867
0.986074
0.985292
0.984714
0.984488
0.984738
0.985433
0.986589
0.988047
0.989581
0.990773
0.991076
0.990072
0.989188
0.984665
0.985535
0.986679
0.987292
0.987035
0.986075
0.984735
0.983259
0.981911
0.980927
0.980483
0.980723
0.981609
0.983172
0.985271
0.987678
0.989972
0.991504
0.991342
0.989903
0.98503
0.985894
0.986772
0.986772
0.985757
0.984034
0.981945
0.979801
0.977932
0.97659
0.975953
0.976137
0.977139
0.978975
0.981554
0.98468
0.987983
0.990852
0.992283
0.990948
0.98523
0.985997
0.986514
0.985891
0.984167
0.981736
0.978981
0.976289
0.974029
0.972449
0.971696
0.971829
0.972868
0.974819
0.977647
0.981233
0.985275
0.989209
0.992132
0.992448
0.98531
0.985938
0.986092
0.984922
0.982588
0.979553
0.976262
0.973174
0.970669
0.968968
0.968169
0.968283
0.969311
0.971253
0.974116
0.977888
0.982405
0.987158
0.991212
0.99325
0.98531
0.985789
0.985625
0.984016
0.98121
0.977724
0.974059
0.970716
0.96807
0.966312
0.965495
0.9656
0.966607
0.968493
0.971264
0.974986
0.979701
0.985072
0.990033
0.992883
0.98526
0.985617
0.985235
0.983353
0.980241
0.976457
0.972547
0.969039
0.966301
0.964495
0.963645
0.963726
0.964709
0.966547
0.969205
0.972747
0.977398
0.983142
0.988966
0.992604
0.985177
0.985449
0.984947
0.982934
0.979676
0.975755
0.971743
0.968165
0.965373
0.963511
0.962599
0.962621
0.963553
0.96534
0.967896
0.971221
0.975625
0.98147
0.987974
0.992427
0.985071
0.985306
0.984801
0.982835
0.979618
0.975725
0.971733
0.968153
0.965326
0.963398
0.9624
0.962327
0.963163
0.964854
0.967288
0.970379
0.97442
0.980148
0.98718
0.99233
0.98494
0.985176
0.984746
0.982955
0.979935
0.976227
0.972393
0.968919
0.96613
0.964177
0.963105
0.962918
0.96361
0.965132
0.96737
0.970191
0.973789
0.979182
0.986553
0.992319
0.984775
0.985052
0.984778
0.983305
0.98066
0.977313
0.973785
0.970528
0.967848
0.965908
0.964772
0.964443
0.964935
0.9662
0.968139
0.970602
0.973698
0.97862
0.986149
0.992378
0.984559
0.984897
0.984777
0.983651
0.981475
0.978625
0.975561
0.972678
0.970252
0.968435
0.967304
0.966859
0.967122
0.968057
0.969586
0.971607
0.974169
0.978458
0.985939
0.992509
0.984305
0.984718
0.984799
0.984079
0.982472
0.980248
0.97778
0.975394
0.973326
0.971712
0.970627
0.970081
0.970082
0.970621
0.971651
0.973126
0.975108
0.978634
0.985933
0.992716
0.98405
0.984458
0.984604
0.984178
0.983098
0.981537
0.979758
0.978
0.976433
0.975164
0.974238
0.973683
0.973483
0.973657
0.974204
0.975116
0.976577
0.979432
0.986359
0.993067
0.983871
0.984368
0.984668
0.984492
0.98388
0.982938
0.981816
0.980662
0.979582
0.978656
0.977913
0.977389
0.977078
0.977001
0.977207
0.977676
0.978749
0.980942
0.987157
0.99351
0.981434
0.98382
0.983808
0.983718
0.983388
0.98295
0.982452
0.981988
0.981563
0.981249
0.981019
0.980914
0.980919
0.981025
0.981316
0.981689
0.982644
0.984308
0.98902
0.994269
0.986961
0.988536
0.989379
0.989883
0.990152
0.990319
0.990406
0.990495
0.990558
0.990657
0.990744
0.990877
0.991001
0.991169
0.991332
0.991558
0.991848
0.992458
0.993677
0.995822
)
;

boundaryField
{
    movingWall
    {
        type            fixedValue;
        value           uniform 1;
    }
    fixedWalls
    {
        type            zeroGradient;
    }
    frontAndBack
    {
        type            empty;
    }
}


// ************************************************************************* //
