/*--------------------------------*- C++ -*----------------------------------*\
| =========                 |                                                 |
| \\      /  F ield         | OpenFOAM: The Open Source CFD Toolbox           |
|  \\    /   O peration     | Version:  2212                                  |
|   \\  /    A nd           | Website:  www.openfoam.com                      |
|    \\/     M anipulation  |                                                 |
\*---------------------------------------------------------------------------*/
FoamFile
{
    version     2.0;
    format      ascii;
    arch        "LSB;label=32;scalar=64";
    class       volVectorField;
    location    "11.1";
    object      U;
}
// * * * * * * * * * * * * * * * * * * * * * * * * * * * * * * * * * * * * * //

dimensions      [0 1 -1 0 0 0 0];

internalField   nonuniform List<vector> 
400
(
(0.00168178 -0.00168381 0)
(0.00483871 -0.00189228 0)
(0.00659123 -0.00120074 0)
(0.00567492 -0.000575137 0)
(0.0015723 0.000183975 0)
(-0.00682914 0.00173939 0)
(-0.0206084 0.00478643 0)
(-0.0395417 0.00873623 0)
(-0.0608122 0.0112929 0)
(-0.079139 0.0105126 0)
(-0.0898143 0.00677451 0)
(-0.0904646 0.00166886 0)
(-0.0802268 -0.00361668 0)
(-0.0599941 -0.00827518 0)
(-0.0335206 -0.0108473 0)
(-0.00529199 -0.00979537 0)
(0.0167246 -0.00477296 0)
(0.0244713 0.00277704 0)
(0.016179 0.00647242 0)
(0.00431659 0.00471722 0)
(0.00172053 -0.00506533 0)
(0.0031628 -0.00403259 0)
(-0.000416906 0.000587711 0)
(-0.0113298 0.00644175 0)
(-0.0314263 0.0140503 0)
(-0.0611509 0.0237745 0)
(-0.0968487 0.0330626 0)
(-0.131463 0.0370937 0)
(-0.158976 0.0335182 0)
(-0.176108 0.0234016 0)
(-0.181455 0.00910912 0)
(-0.175083 -0.00699064 0)
(-0.157564 -0.0231752 0)
(-0.129653 -0.0369153 0)
(-0.0936156 -0.0445668 0)
(-0.0521944 -0.0418396 0)
(-0.0113995 -0.0263343 0)
(0.0168905 -0.00127858 0)
(0.0178727 0.0162245 0)
(0.00554231 0.0148203 0)
(-0.000239538 -0.00578072 0)
(-0.0053811 0.000801504 0)
(-0.0196096 0.0142995 0)
(-0.044505 0.0312369 0)
(-0.0803436 0.0494474 0)
(-0.122209 0.0643231 0)
(-0.162356 0.0705492 0)
(-0.19528 0.0660309 0)
(-0.218874 0.0521924 0)
(-0.232542 0.0315343 0)
(-0.236298 0.00641583 0)
(-0.230812 -0.0211149 0)
(-0.216397 -0.0488755 0)
(-0.19255 -0.0732299 0)
(-0.159011 -0.0890297 0)
(-0.115745 -0.0892321 0)
(-0.0645642 -0.0670301 0)
(-0.013821 -0.022664 0)
(0.00948179 0.0179195 0)
(0.00415547 0.0235808 0)
(-0.00347202 0.000452915 0)
(-0.0175154 0.0172406 0)
(-0.043518 0.0415024 0)
(-0.0796863 0.0681981 0)
(-0.122966 0.0911656 0)
(-0.165862 0.103854 0)
(-0.201935 0.102908 0)
(-0.229261 0.0896753 0)
(-0.248101 0.0673284 0)
(-0.259056 0.0385803 0)
(-0.262964 0.00531654 0)
(-0.260631 -0.0311196 0)
(-0.251997 -0.0684591 0)
(-0.236017 -0.103749 0)
(-0.210704 -0.131497 0)
(-0.173355 -0.142896 0)
(-0.121407 -0.125769 0)
(-0.056846 -0.0708538 0)
(-0.000986741 0.00356744 0)
(0.00474231 0.0282415 0)
(-0.00666311 0.014783 0)
(-0.0287317 0.044113 0)
(-0.0632945 0.0770999 0)
(-0.10447 0.108929 0)
(-0.147293 0.131219 0)
(-0.184596 0.138207 0)
(-0.212937 0.129513 0)
(-0.232723 0.108754 0)
(-0.245241 0.0798017 0)
(-0.252218 0.045449 0)
(-0.255338 0.00723947 0)
(-0.255519 -0.0340009 0)
(-0.252539 -0.0770887 0)
(-0.245856 -0.120694 0)
(-0.232658 -0.160832 0)
(-0.208333 -0.189042 0)
(-0.166829 -0.18999 0)
(-0.103454 -0.142885 0)
(-0.0221828 -0.0388533 0)
(0.00738224 0.0271025 0)
(-0.00851163 0.0348754 0)
(-0.0351808 0.0766448 0)
(-0.0731003 0.114964 0)
(-0.113276 0.147717 0)
(-0.150544 0.166051 0)
(-0.17941 0.165988 0)
(-0.198938 0.149776 0)
(-0.210686 0.122515 0)
(-0.216637 0.0885516 0)
(-0.219269 0.050873 0)
(-0.220539 0.0109547 0)
(-0.22144 -0.0307611 0)
(-0.222171 -0.0747269 0)
(-0.222843 -0.1213 0)
(-0.221269 -0.169247 0)
(-0.212364 -0.21308 0)
(-0.188043 -0.238607 0)
(-0.139699 -0.218556 0)
(-0.0628538 -0.118948 0)
(0.00584965 0.0142043 0)
(-0.00829403 0.0570104 0)
(-0.0353468 0.110022 0)
(-0.0718469 0.150513 0)
(-0.107093 0.181209 0)
(-0.136732 0.193904 0)
(-0.157141 0.186509 0)
(-0.169055 0.163344 0)
(-0.174595 0.130557 0)
(-0.176171 0.0929092 0)
(-0.176271 0.0534132 0)
(-0.176385 0.013314 0)
(-0.177186 -0.0273143 0)
(-0.179217 -0.0695845 0)
(-0.183024 -0.114739 0)
(-0.18797 -0.163874 0)
(-0.190439 -0.215843 0)
(-0.182549 -0.261693 0)
(-0.154297 -0.27521 0)
(-0.0994125 -0.20593 0)
(-0.00890855 -0.0146249 0)
(-0.00613689 0.0776096 0)
(-0.0297984 0.140578 0)
(-0.061439 0.181254 0)
(-0.0899147 0.208374 0)
(-0.111928 0.214965 0)
(-0.125468 0.200638 0)
(-0.132161 0.171404 0)
(-0.134315 0.134239 0)
(-0.13438 0.0941218 0)
(-0.134282 0.0537548 0)
(-0.134689 0.0138632 0)
(-0.135782 -0.0258931 0)
(-0.138014 -0.0664924 0)
(-0.142076 -0.109113 0)
(-0.148587 -0.155703 0)
(-0.156249 -0.208618 0)
(-0.159103 -0.265942 0)
(-0.146772 -0.308176 0)
(-0.112271 -0.277245 0)
(-0.0309701 -0.0753457 0)
(-0.00273095 0.0936324 0)
(-0.0204241 0.165674 0)
(-0.0451646 0.205651 0)
(-0.0663646 0.228647 0)
(-0.081637 0.22961 0)
(-0.0901306 0.209622 0)
(-0.0937654 0.175869 0)
(-0.0946799 0.13583 0)
(-0.0949595 0.0944817 0)
(-0.0957566 0.0540367 0)
(-0.0971073 0.0145942 0)
(-0.0989175 -0.0245894 0)
(-0.101353 -0.0642438 0)
(-0.104919 -0.105018 0)
(-0.110763 -0.148502 0)
(-0.119622 -0.198623 0)
(-0.128373 -0.25985 0)
(-0.126543 -0.32351 0)
(-0.107495 -0.334813 0)
(-0.0373552 -0.163464 0)
(0.00121932 0.102781 0)
(-0.0089465 0.18352 0)
(-0.025653 0.223209 0)
(-0.0396555 0.242834 0)
(-0.0491377 0.239601 0)
(-0.0540127 0.215626 0)
(-0.0559841 0.17887 0)
(-0.0566987 0.137171 0)
(-0.0576611 0.095414 0)
(-0.0594043 0.055277 0)
(-0.0616978 0.0163108 0)
(-0.0643984 -0.0224958 0)
(-0.0674971 -0.0617484 0)
(-0.0711719 -0.101646 0)
(-0.0763549 -0.142855 0)
(-0.0846158 -0.188999 0)
(-0.0960818 -0.248418 0)
(-0.100663 -0.324379 0)
(-0.0951826 -0.372281 0)
(-0.0309264 -0.242621 0)
(0.00511921 0.103948 0)
(0.00295742 0.193122 0)
(-0.00539185 0.233706 0)
(-0.0125104 0.250869 0)
(-0.0169025 0.244785 0)
(-0.0187905 0.218568 0)
(-0.0194797 0.180506 0)
(-0.0200089 0.138429 0)
(-0.0213078 0.0969695 0)
(-0.0235442 0.057428 0)
(-0.0264333 0.0190831 0)
(-0.029917 -0.0191704 0)
(-0.0340116 -0.0579866 0)
(-0.0386554 -0.0974162 0)
(-0.0443937 -0.137376 0)
(-0.0524532 -0.180248 0)
(-0.0657692 -0.23572 0)
(-0.0742267 -0.318158 0)
(-0.0812034 -0.396788 0)
(-0.0229435 -0.307182 0)
(0.00845918 0.0974736 0)
(0.0142231 0.194116 0)
(0.0141061 0.23723 0)
(0.0137116 0.253651 0)
(0.0143346 0.246572 0)
(0.0155317 0.219864 0)
(0.0163915 0.181815 0)
(0.0164453 0.140099 0)
(0.0153075 0.0991574 0)
(0.0130306 0.0602283 0)
(0.00986279 0.0226275 0)
(0.00575437 -0.0147541 0)
(0.00056228 -0.0527011 0)
(-0.00556378 -0.0913091 0)
(-0.0130321 -0.130206 0)
(-0.0219793 -0.170389 0)
(-0.0377199 -0.220766 0)
(-0.0487298 -0.30452 0)
(-0.0679047 -0.408531 0)
(-0.0144592 -0.360065 0)
(0.0103312 0.0844928 0)
(0.023423 0.186519 0)
(0.0310881 0.233353 0)
(0.0370188 0.250196 0)
(0.0426818 0.243357 0)
(0.0476377 0.217572 0)
(0.051076 0.180809 0)
(0.0527527 0.140402 0)
(0.0526221 0.100638 0)
(0.0508937 0.0628259 0)
(0.0477843 0.0264581 0)
(0.0431762 -0.00952196 0)
(0.0369019 -0.0460052 0)
(0.0290856 -0.0831459 0)
(0.018929 -0.120576 0)
(0.00760195 -0.158521 0)
(-0.0118141 -0.204479 0)
(-0.0242361 -0.286522 0)
(-0.0558426 -0.411037 0)
(-0.00613709 -0.401911 0)
(0.00987991 0.0672391 0)
(0.0290354 0.170708 0)
(0.044364 0.222261 0)
(0.056909 0.24136 0)
(0.0682051 0.236434 0)
(0.0778948 0.213072 0)
(0.0851185 0.178779 0)
(0.0895756 0.140436 0)
(0.0913425 0.102273 0)
(0.0907189 0.0658339 0)
(0.0880343 0.0309806 0)
(0.0829851 -0.00330321 0)
(0.0754696 -0.0375511 0)
(0.0657759 -0.0723379 0)
(0.0525216 -0.107468 0)
(0.0375855 -0.142819 0)
(0.0131403 -0.184305 0)
(8.66628e-05 -0.263282 0)
(-0.0447944 -0.406736 0)
(0.00276662 -0.436287 0)
(0.00693111 0.0493983 0)
(0.0293707 0.148982 0)
(0.0511236 0.203668 0)
(0.0700062 0.224591 0)
(0.0874862 0.221735 0)
(0.103185 0.201577 0)
(0.115859 0.170981 0)
(0.124827 0.136089 0)
(0.130002 0.100888 0)
(0.131625 0.0670567 0)
(0.129962 0.0348446 0)
(0.125038 0.00342797 0)
(0.116406 -0.0274733 0)
(0.104671 -0.0587168 0)
(0.0875739 -0.0903445 0)
(0.0683798 -0.122966 0)
(0.0383102 -0.160886 0)
(0.0238682 -0.237181 0)
(-0.0344356 -0.398981 0)
(0.0134766 -0.464442 0)
(0.00238758 0.0346257 0)
(0.0236461 0.123909 0)
(0.0509693 0.179969 0)
(0.0767071 0.202973 0)
(0.101378 0.202664 0)
(0.124267 0.186263 0)
(0.143726 0.160205 0)
(0.158539 0.129772 0)
(0.168288 0.0985771 0)
(0.173182 0.0683076 0)
(0.173158 0.0395616 0)
(0.16893 0.0119335 0)
(0.159092 -0.0149185 0)
(0.145356 -0.041728 0)
(0.124048 -0.0687745 0)
(0.100502 -0.0975791 0)
(0.0646397 -0.132735 0)
(0.0470162 -0.207475 0)
(-0.0226996 -0.387094 0)
(0.0285352 -0.485566 0)
(-0.00342643 0.0286112 0)
(0.0100755 0.101504 0)
(0.037121 0.14871 0)
(0.0689926 0.16948 0)
(0.101894 0.170703 0)
(0.13362 0.158413 0)
(0.161625 0.137976 0)
(0.184176 0.113571 0)
(0.20023 0.0882804 0)
(0.210158 0.0636352 0)
(0.213084 0.0403805 0)
(0.210831 0.0183992 0)
(0.200565 -0.00268363 0)
(0.18593 -0.0233243 0)
(0.161109 -0.0439933 0)
(0.134484 -0.0677571 0)
(0.0929443 -0.101709 0)
(0.0698843 -0.180026 0)
(-0.00436309 -0.370059 0)
(0.0521635 -0.491644 0)
(-0.0140132 0.0185151 0)
(-0.0075162 0.0881756 0)
(0.0192241 0.1242 0)
(0.056464 0.13733 0)
(0.0976254 0.136924 0)
(0.138016 0.127742 0)
(0.174276 0.113084 0)
(0.204128 0.095304 0)
(0.226029 0.076829 0)
(0.241127 0.0586773 0)
(0.247163 0.0418017 0)
(0.24808 0.0261046 0)
(0.238738 0.011738 0)
(0.226919 -0.00205548 0)
(0.201914 -0.0160976 0)
(0.177922 -0.0350347 0)
(0.133567 -0.067813 0)
(0.107847 -0.146007 0)
(0.0374753 -0.32612 0)
(0.0923687 -0.455871 0)
(-0.106021 0.0824164 0)
(-0.0777609 0.0689896 0)
(-0.0485677 0.0733713 0)
(0.00378438 0.0778932 0)
(0.0573046 0.0782283 0)
(0.110042 0.0739646 0)
(0.157216 0.0666292 0)
(0.199584 0.0572238 0)
(0.231699 0.0475467 0)
(0.259855 0.0378888 0)
(0.275584 0.02922 0)
(0.290739 0.0212324 0)
(0.29109 0.0144735 0)
(0.295198 0.0080892 0)
(0.278891 0.00112024 0)
(0.271672 -0.0100172 0)
(0.232356 -0.0355716 0)
(0.218146 -0.0954206 0)
(0.150209 -0.229723 0)
(0.170672 -0.341455 0)
(0.129968 0.103744 0)
(0.158319 0.075227 0)
(0.212163 0.0532266 0)
(0.270671 0.0416219 0)
(0.323248 0.0359126 0)
(0.375692 0.0319484 0)
(0.42029 0.0289165 0)
(0.465611 0.025581 0)
(0.498709 0.0229029 0)
(0.533961 0.0197104 0)
(0.5534 0.0175474 0)
(0.57921 0.0146093 0)
(0.585347 0.0131643 0)
(0.603685 0.0103452 0)
(0.595103 0.00938276 0)
(0.603603 0.00499913 0)
(0.567792 8.86916e-05 0)
(0.547612 -0.0183162 0)
(0.435689 -0.0504144 0)
(0.336753 -0.101385 0)
)
;

boundaryField
{
    movingWall
    {
        type            fixedValue;
        value           uniform (1 0 0);
    }
    fixedWalls
    {
        type            noSlip;
    }
    frontAndBack
    {
        type            empty;
    }
}


// ************************************************************************* //
