/*--------------------------------*- C++ -*----------------------------------*\
| =========                 |                                                 |
| \\      /  F ield         | OpenFOAM: The Open Source CFD Toolbox           |
|  \\    /   O peration     | Version:  2212                                  |
|   \\  /    A nd           | Website:  www.openfoam.com                      |
|    \\/     M anipulation  |                                                 |
\*---------------------------------------------------------------------------*/
FoamFile
{
    version     2.0;
    format      ascii;
    arch        "LSB;label=32;scalar=64";
    class       volScalarField;
    location    "9.4";
    object      p;
}
// * * * * * * * * * * * * * * * * * * * * * * * * * * * * * * * * * * * * * //

dimensions      [0 2 -2 0 0 0 0];

internalField   nonuniform List<scalar> 
400
(
4.90059e-07
-0.000150501
-0.000534567
-0.00107175
-0.00173245
-0.00249389
-0.00318499
-0.00359755
-0.00356531
-0.00293406
-0.00154854
0.000619352
0.00324953
0.00551408
0.0065339
0.00592324
0.00400262
0.00215029
0.00111131
0.00104225
0.000116384
-5.80259e-05
-0.000376958
-0.000764121
-0.00124403
-0.00188813
-0.0027062
-0.00354348
-0.00407993
-0.00393834
-0.00284638
-0.000824853
0.00168937
0.00396097
0.0051249
0.0047435
0.00310359
0.0013754
0.00059381
0.000684849
0.000536479
0.000265026
-7.72489e-05
-0.00055959
-0.00134727
-0.00258059
-0.00421904
-0.00598359
-0.00740229
-0.00794357
-0.00726391
-0.00546176
-0.00289146
-0.000194458
0.00179203
0.00242818
0.00170941
0.000502764
-0.000395434
-0.000392172
0.00115194
0.000741277
0.000191923
-0.000774756
-0.00245104
-0.00493765
-0.0079948
-0.0111199
-0.0137026
-0.0151761
-0.0152059
-0.0138391
-0.0112929
-0.00802848
-0.00475174
-0.00220925
-0.000869912
-0.000705736
-0.00128834
-0.00191768
0.00158325
0.000973689
-2.28594e-05
-0.001924
-0.00500642
-0.00917958
-0.0139129
-0.0184785
-0.0222146
-0.024651
-0.0255266
-0.024721
-0.0223617
-0.018742
-0.0143035
-0.00965482
-0.00559144
-0.00294837
-0.0021928
-0.00401746
0.00129325
0.000444963
-0.00119731
-0.00430417
-0.00900448
-0.0148796
-0.0210712
-0.0267131
-0.0311886
-0.0341755
-0.0355422
-0.0351863
-0.033194
-0.0297161
-0.0248973
-0.0189594
-0.0125042
-0.00694762
-0.00440035
-0.00652356
-4.84222e-05
-0.00114759
-0.00349932
-0.00779637
-0.0139315
-0.0211127
-0.0282338
-0.0344045
-0.0391248
-0.0422277
-0.0437152
-0.043606
-0.0419685
-0.038875
-0.0343077
-0.0281547
-0.0205372
-0.0127017
-0.00785407
-0.0077474
-0.00245049
-0.00374209
-0.00669825
-0.0119126
-0.0190383
-0.0269795
-0.0345008
-0.040775
-0.0454458
-0.0484714
-0.0499338
-0.0499252
-0.0485248
-0.0457835
-0.0416582
-0.0359233
-0.0283231
-0.0193694
-0.0118213
-0.00797997
-0.00553747
-0.00691493
-0.0102631
-0.0160207
-0.0236561
-0.0318865
-0.0394472
-0.0456078
-0.0501313
-0.0530508
-0.0544795
-0.0545197
-0.0532459
-0.0507197
-0.0469569
-0.0418079
-0.0348646
-0.0259454
-0.0167077
-0.0099937
-0.00873338
-0.0100854
-0.0135968
-0.0195406
-0.0272838
-0.0354835
-0.0429073
-0.0489038
-0.0533025
-0.0561597
-0.0575832
-0.0576544
-0.0564364
-0.0540041
-0.0504451
-0.0457556
-0.0396303
-0.0315212
-0.0223193
-0.0143385
-0.0115035
-0.0127572
-0.0162181
-0.0220524
-0.0296042
-0.0375845
-0.0448211
-0.0506927
-0.0550351
-0.0578857
-0.0593276
-0.0594191
-0.0582103
-0.0557812
-0.0522803
-0.047847
-0.042427
-0.0353795
-0.0271957
-0.0191775
-0.0135486
-0.0146178
-0.0178546
-0.0233134
-0.0304278
-0.0380585
-0.0451122
-0.0509429
-0.0553211
-0.0582317
-0.0597189
-0.0598213
-0.0585797
-0.0560752
-0.0525088
-0.0481327
-0.0432027
-0.0370532
-0.0300295
-0.0224152
-0.0148366
-0.015567
-0.0183505
-0.0232082
-0.0296903
-0.0368746
-0.0437591
-0.0496334
-0.0541471
-0.0571923
-0.0587609
-0.058868
-0.0575492
-0.0549082
-0.0511707
-0.0466507
-0.0419616
-0.0362973
-0.0302239
-0.022894
-0.015467
-0.0157212
-0.017776
-0.0217444
-0.0273869
-0.0340277
-0.0407455
-0.0467343
-0.0514856
-0.0547601
-0.0564736
-0.0566147
-0.0551935
-0.0523459
-0.0483403
-0.0435774
-0.0387275
-0.0331393
-0.0280979
-0.0202779
-0.0155736
-0.0152974
-0.016337
-0.0190863
-0.0236508
-0.0296309
-0.0361673
-0.0423304
-0.0474212
-0.0510323
-0.0529726
-0.0531759
-0.0516839
-0.0485853
-0.0442219
-0.0390504
-0.0337797
-0.0280705
-0.0242307
-0.0143845
-0.0152761
-0.0145495
-0.01426
-0.0154249
-0.0186833
-0.0238923
-0.0302281
-0.0366104
-0.0421325
-0.0461952
-0.0484829
-0.04886
-0.0473473
-0.044016
-0.0392453
-0.0335167
-0.0276404
-0.0216294
-0.018054
-0.00383349
-0.0146614
-0.0136177
-0.0117064
-0.0110806
-0.0129529
-0.0173789
-0.0235318
-0.0301672
-0.0361892
-0.0408067
-0.0435734
-0.0442565
-0.0428459
-0.0393726
-0.0341828
-0.0276887
-0.0206826
-0.0132775
-0.00678767
0.0160513
-0.0145828
-0.0126568
-0.00864836
-0.00623471
-0.00691006
-0.0107453
-0.0168166
-0.0237378
-0.0302956
-0.0355355
-0.0388994
-0.0400309
-0.0388738
-0.0354452
-0.0298943
-0.0222757
-0.012874
-0.000690675
0.016692
0.0570614
-0.0117944
-0.0118305
-0.00572633
-0.00177558
-0.00176555
-0.00540491
-0.0115747
-0.0188135
-0.0258732
-0.0316844
-0.0356588
-0.0373583
-0.0366821
-0.033353
-0.0272231
-0.0175419
-0.00315016
0.0204872
0.0607009
0.129819
-0.0295165
-0.0106297
-0.000609302
0.00308004
0.00244745
-0.00155745
-0.00799922
-0.0155523
-0.0229742
-0.029171
-0.0335286
-0.0355846
-0.0351981
-0.0319535
-0.0252265
-0.0128603
0.00942089
0.0511687
0.122875
0.226074
)
;

boundaryField
{
    movingWall
    {
        type            zeroGradient;
    }
    fixedWalls
    {
        type            zeroGradient;
    }
    frontAndBack
    {
        type            empty;
    }
}


// ************************************************************************* //
