/*--------------------------------*- C++ -*----------------------------------*\
| =========                 |                                                 |
| \\      /  F ield         | OpenFOAM: The Open Source CFD Toolbox           |
|  \\    /   O peration     | Version:  2212                                  |
|   \\  /    A nd           | Website:  www.openfoam.com                      |
|    \\/     M anipulation  |                                                 |
\*---------------------------------------------------------------------------*/
FoamFile
{
    version     2.0;
    format      ascii;
    arch        "LSB;label=32;scalar=64";
    class       surfaceScalarField;
    location    "9.4";
    object      phi;
}
// * * * * * * * * * * * * * * * * * * * * * * * * * * * * * * * * * * * * * //

dimensions      [0 3 -1 0 0 0 0];

oriented        oriented;

internalField   nonuniform List<scalar> 
760
(
1.56073e-07
-1.56117e-07
2.93608e-07
-1.37535e-07
3.09966e-07
-1.63584e-08
1.83657e-07
1.26309e-07
-1.20326e-07
3.03983e-07
-6.6593e-07
5.45604e-07
-1.48524e-06
8.19314e-07
-2.4908e-06
1.00556e-06
-3.48026e-06
9.89457e-07
-4.22025e-06
7.39988e-07
-4.54389e-06
3.23639e-07
-4.3536e-06
-1.90289e-07
-3.59375e-06
-7.59844e-07
-2.37903e-06
-1.21472e-06
-9.40102e-07
-1.43893e-06
3.47648e-07
-1.28775e-06
1.08985e-06
-7.42205e-07
1.03303e-06
5.6821e-08
4.6098e-07
5.72055e-07
4.60981e-07
1.25031e-07
-2.81148e-07
7.45776e-08
-8.70812e-08
-2.97055e-07
3.55275e-07
-1.07892e-06
9.08172e-07
-2.31591e-06
1.54097e-06
-3.92733e-06
2.15702e-06
-5.66217e-06
2.55416e-06
-7.20686e-06
2.55024e-06
-8.33674e-06
2.11934e-06
-8.94209e-06
1.34533e-06
-8.97603e-06
3.57581e-07
-8.41607e-06
-7.50256e-07
-7.29354e-06
-1.88237e-06
-5.642e-06
-2.86626e-06
-3.60583e-06
-3.47509e-06
-1.49029e-06
-3.4033e-06
1.78652e-07
-2.41115e-06
8.58932e-07
-6.23461e-07
5.25687e-07
9.05298e-07
9.86668e-07
-1.27614e-07
-1.53534e-07
-6.33947e-07
4.19251e-07
-1.62493e-06
1.34626e-06
-3.14143e-06
2.42468e-06
-5.05743e-06
3.45697e-06
-7.07322e-06
4.17281e-06
-8.87325e-06
4.3542e-06
-1.02775e-05
3.95446e-06
-1.12342e-05
3.07609e-06
-1.17358e-05
1.84688e-06
-1.17298e-05
3.51641e-07
-1.12709e-05
-1.20915e-06
-1.03383e-05
-2.81503e-06
-8.87768e-06
-4.32686e-06
-6.86948e-06
-5.48329e-06
-4.40318e-06
-5.8696e-06
-1.87875e-06
-4.93558e-06
-8.64271e-08
-2.41578e-06
2.9468e-07
5.24191e-07
1.28135e-06
-5.00529e-07
3.46995e-07
-1.55998e-06
1.4787e-06
-3.11946e-06
2.90573e-06
-5.0813e-06
4.38652e-06
-7.18513e-06
5.5608e-06
-9.12307e-06
6.11075e-06
-1.06929e-05
5.924e-06
-1.1852e-05
5.11363e-06
-1.26286e-05
3.85269e-06
-1.30573e-05
2.27551e-06
-1.31223e-05
4.16698e-07
-1.28828e-05
-1.44863e-06
-1.23001e-05
-3.39781e-06
-1.12722e-05
-5.35471e-06
-9.66857e-06
-7.08693e-06
-7.36451e-06
-8.17365e-06
-4.39871e-06
-7.90138e-06
-1.37807e-06
-5.43643e-06
1.20723e-07
-9.746e-07
1.40207e-06
-8.61937e-07
1.20893e-06
-2.36168e-06
2.97845e-06
-4.23273e-06
4.77678e-06
-6.28004e-06
6.43384e-06
-8.22241e-06
7.50316e-06
-9.83711e-06
7.72545e-06
-1.10475e-05
7.13437e-06
-1.18801e-05
5.94621e-06
-1.23966e-05
4.36926e-06
-1.26698e-05
2.5487e-06
-1.27904e-05
5.37284e-07
-1.27448e-05
-1.49426e-06
-1.25242e-05
-3.61843e-06
-1.20496e-05
-5.82925e-06
-1.1135e-05
-8.00158e-06
-9.49229e-06
-9.81634e-06
-6.8221e-06
-1.05716e-05
-3.22296e-06
-9.03557e-06
-2.61178e-07
-3.93638e-06
1.14089e-06
-1.08708e-06
2.29601e-06
-2.78459e-06
4.67596e-06
-4.67836e-06
6.67055e-06
-6.53639e-06
8.29187e-06
-8.13435e-06
9.10112e-06
-9.34122e-06
8.93232e-06
-1.0153e-05
7.94616e-06
-1.06348e-05
6.42803e-06
-1.08769e-05
4.61132e-06
-1.09788e-05
2.65065e-06
-1.1062e-05
6.2048e-07
-1.11126e-05
-1.44369e-06
-1.11468e-05
-3.58426e-06
-1.11357e-05
-5.84034e-06
-1.0926e-05
-8.21123e-06
-1.01909e-05
-1.05515e-05
-8.43586e-06
-1.23266e-05
-5.24493e-06
-1.22265e-05
-1.15865e-06
-8.02266e-06
-1.77606e-08
-1.11119e-06
3.4072e-06
-2.75926e-06
6.32403e-06
-4.45722e-06
8.3685e-06
-5.99323e-06
9.82789e-06
-7.20721e-06
1.03151e-05
-8.03684e-06
9.76195e-06
-8.51989e-06
8.42921e-06
-8.74335e-06
6.65149e-06
-8.81066e-06
4.67863e-06
-8.81854e-06
2.65853e-06
-8.84907e-06
6.51015e-07
-8.92044e-06
-1.37233e-06
-9.05259e-06
-3.45211e-06
-9.25719e-06
-5.63573e-06
-9.47826e-06
-7.99017e-06
-9.48502e-06
-1.05447e-05
-8.75879e-06
-1.30528e-05
-6.54108e-06
-1.44442e-05
-2.4249e-06
-1.21388e-05
-2.44266e-06
-9.36572e-07
4.34377e-06
-2.34887e-06
7.73633e-06
-3.73678e-06
9.75641e-06
-4.91679e-06
1.10079e-05
-5.78796e-06
1.11863e-05
-6.3335e-06
1.03075e-05
-6.61062e-06
8.70632e-06
-6.71029e-06
6.75117e-06
-6.72837e-06
4.69671e-06
-6.73753e-06
2.66769e-06
-6.77314e-06
6.86617e-07
-6.85195e-06
-1.29351e-06
-6.99491e-06
-3.30916e-06
-7.23265e-06
-5.39799e-06
-7.58278e-06
-7.64004e-06
-7.95529e-06
-1.01722e-05
-7.94115e-06
-1.30669e-05
-6.72238e-06
-1.5663e-05
-3.58973e-06
-1.52715e-05
-6.03239e-06
-6.26016e-07
4.96979e-06
-1.68965e-06
8.79996e-06
-2.72385e-06
1.07906e-05
-3.56401e-06
1.18481e-05
-4.15463e-06
1.17769e-05
-4.5059e-06
1.06588e-05
-4.67675e-06
8.87717e-06
-4.74551e-06
6.81992e-06
-4.78428e-06
4.73547e-06
-4.83626e-06
2.71968e-06
-4.91127e-06
7.6163e-07
-5.01548e-06
-1.1893e-06
-5.15863e-06
-3.16601e-06
-5.36924e-06
-5.18737e-06
-5.70251e-06
-7.30678e-06
-6.1726e-06
-9.70214e-06
-6.56281e-06
-1.26767e-05
-6.13278e-06
-1.6093e-05
-3.92699e-06
-1.74773e-05
-9.95938e-06
-2.33246e-07
5.20304e-06
-8.9496e-07
9.46168e-06
-1.56748e-06
1.14631e-05
-2.09799e-06
1.23786e-05
-2.45885e-06
1.21377e-05
-2.67435e-06
1.08743e-05
-2.7927e-06
8.99552e-06
-2.86709e-06
6.89432e-06
-2.94198e-06
4.81036e-06
-3.03918e-06
2.81688e-06
-3.16139e-06
8.83842e-07
-3.3081e-06
-1.0426e-06
-3.47932e-06
-2.99478e-06
-3.6871e-06
-4.97958e-06
-3.98179e-06
-7.01209e-06
-4.44583e-06
-9.2381e-06
-5.02789e-06
-1.20947e-05
-5.12726e-06
-1.59936e-05
-3.56069e-06
-1.90438e-05
-1.35201e-05
1.63762e-07
5.03927e-06
-7.04406e-08
9.69588e-06
-4.03896e-07
1.17966e-05
-6.55413e-07
1.26301e-05
-8.10928e-07
1.22933e-05
-9.01579e-07
1.09649e-05
-9.66726e-07
9.06067e-06
-1.03822e-06
6.96581e-06
-1.13259e-06
4.90474e-06
-1.25761e-06
2.9419e-06
-1.41585e-06
1.04208e-06
-1.60943e-06
-8.49015e-07
-1.83677e-06
-2.76744e-06
-2.09549e-06
-4.72086e-06
-2.41277e-06
-6.69482e-06
-2.87997e-06
-8.7709e-06
-3.56266e-06
-1.1412e-05
-4.0271e-06
-1.55292e-05
-3.02684e-06
-2.00441e-05
-1.65469e-05
5.02455e-07
4.53682e-06
7.00689e-07
9.49765e-06
7.44087e-07
1.17532e-05
7.79838e-07
1.25943e-05
8.24802e-07
1.22483e-05
8.53677e-07
1.0936e-05
8.46827e-07
9.06752e-06
7.96067e-07
7.01657e-06
7.02198e-07
4.99861e-06
5.66911e-07
3.07718e-06
3.84973e-07
1.22402e-06
1.50194e-07
-6.14235e-07
-1.38967e-07
-2.47828e-06
-4.8915e-07
-4.37068e-06
-9.03874e-07
-6.28009e-06
-1.42651e-06
-8.24826e-06
-2.20454e-06
-1.06339e-05
-2.95403e-06
-1.47797e-05
-2.46097e-06
-2.05372e-05
-1.90079e-05
7.59735e-07
3.77708e-06
1.3595e-06
8.89788e-06
1.75397e-06
1.13587e-05
2.08502e-06
1.22633e-05
2.35955e-06
1.19738e-05
2.54744e-06
1.07482e-05
2.64062e-06
8.97434e-06
2.64979e-06
7.0074e-06
2.58891e-06
5.05949e-06
2.4643e-06
3.20179e-06
2.26831e-06
1.42001e-06
1.98685e-06
-3.32769e-07
1.62059e-06
-2.11202e-06
1.16465e-06
-3.91474e-06
6.1481e-07
-5.73025e-06
-8.0018e-08
-7.55343e-06
-9.53767e-07
-9.7602e-06
-1.9169e-06
-1.38166e-05
-1.92418e-06
-2.05299e-05
-2.09321e-05
8.7548e-07
2.9016e-06
1.81892e-06
7.95444e-06
2.56395e-06
1.06137e-05
3.208e-06
1.16192e-05
3.75857e-06
1.14232e-05
4.17245e-06
1.03343e-05
4.43384e-06
8.71295e-06
4.55668e-06
6.88455e-06
4.56378e-06
5.0524e-06
4.47007e-06
3.29549e-06
4.27334e-06
1.61674e-06
3.94091e-06
-3.40167e-10
3.4936e-06
-1.6647e-06
2.90576e-06
-3.3269e-06
2.17871e-06
-5.00319e-06
1.33162e-06
-6.70635e-06
2.74196e-07
-8.70277e-06
-9.53262e-07
-1.25891e-05
-1.42494e-06
-2.00582e-05
-2.2357e-05
8.11361e-07
2.09024e-06
1.96488e-06
6.80093e-06
3.01247e-06
9.5661e-06
3.99049e-06
1.06412e-05
4.87202e-06
1.05417e-05
5.59107e-06
9.61522e-06
6.10856e-06
8.19546e-06
6.42741e-06
6.5657e-06
6.56833e-06
4.91148e-06
6.54911e-06
3.31471e-06
6.36786e-06
1.79798e-06
6.0219e-06
3.45621e-07
5.47815e-06
-1.12094e-06
4.74413e-06
-2.59289e-06
3.81205e-06
-4.07111e-06
2.71097e-06
-5.60527e-06
1.40153e-06
-7.39333e-06
-1.49024e-07
-1.10386e-05
-9.09111e-07
-1.92981e-05
-2.32661e-05
5.81399e-07
1.50884e-06
1.77012e-06
5.6122e-06
3.11521e-06
8.22101e-06
4.47283e-06
9.2836e-06
5.74549e-06
9.26901e-06
6.83459e-06
8.52612e-06
7.67471e-06
7.35534e-06
8.25315e-06
5.98726e-06
8.58215e-06
4.58249e-06
8.67826e-06
3.2186e-06
8.5481e-06
1.92815e-06
8.18875e-06
7.04973e-07
7.55606e-06
-4.8826e-07
6.66751e-06
-1.70434e-06
5.51049e-06
-2.91409e-06
4.12604e-06
-4.22081e-06
2.58825e-06
-5.85554e-06
9.68898e-07
-9.41922e-06
-1.39004e-07
-1.81902e-05
-2.34051e-05
1.54302e-07
1.35454e-06
1.04857e-06
4.71793e-06
2.5333e-06
6.73628e-06
4.26331e-06
7.55359e-06
5.99322e-06
7.5391e-06
7.53527e-06
6.98407e-06
8.78675e-06
6.10386e-06
9.71784e-06
5.05618e-06
1.03235e-05
3.9768e-06
1.06151e-05
2.92701e-06
1.05985e-05
1.94476e-06
1.02792e-05
1.0243e-06
9.61076e-06
1.80164e-07
8.61588e-06
-7.09456e-07
7.28428e-06
-1.58248e-06
5.66819e-06
-2.60472e-06
3.92883e-06
-4.11619e-06
2.25055e-06
-7.74093e-06
6.5687e-07
-1.65965e-05
-2.27482e-05
-5.19126e-07
1.87367e-06
2.03689e-07
3.99512e-06
1.76776e-06
5.17221e-06
3.84122e-06
5.48012e-06
6.00685e-06
5.37348e-06
7.97759e-06
5.01333e-06
9.61682e-06
4.46462e-06
1.08829e-05
3.79007e-06
1.17584e-05
3.10137e-06
1.22592e-05
2.42619e-06
1.23888e-05
1.81515e-06
1.21669e-05
1.24619e-06
1.16177e-05
7.29311e-07
1.07116e-05
1.96712e-07
9.45315e-06
-3.24059e-07
7.91626e-06
-1.06783e-06
6.28681e-06
-2.48674e-06
4.46668e-06
-5.92081e-06
2.0597e-06
-1.41896e-05
-2.06885e-05
-4.18155e-06
6.05521e-06
-3.64413e-06
3.45771e-06
-1.24385e-06
2.77192e-06
1.56253e-06
2.67375e-06
4.31102e-06
2.62499e-06
6.85453e-06
2.46982e-06
9.07936e-06
2.23979e-06
1.0925e-05
1.94442e-06
1.23729e-05
1.65353e-06
1.34498e-05
1.34924e-06
1.41729e-05
1.09209e-06
1.45868e-05
8.32259e-07
1.46792e-05
6.36926e-07
1.4459e-05
4.16944e-07
1.39222e-05
2.12713e-07
1.30848e-05
-2.30406e-07
1.19346e-05
-1.33654e-06
1.01166e-05
-4.1029e-06
5.63957e-06
-9.71249e-06
-1.5049e-05
6.05521e-06
9.51292e-06
1.22848e-05
1.49586e-05
1.75836e-05
2.00534e-05
2.22932e-05
2.42376e-05
2.58911e-05
2.72404e-05
2.83325e-05
2.91647e-05
2.98016e-05
3.02186e-05
3.04313e-05
3.02009e-05
2.88644e-05
2.47615e-05
1.5049e-05
)
;

boundaryField
{
    movingWall
    {
        type            calculated;
        value           uniform 0;
    }
    fixedWalls
    {
        type            calculated;
        value           uniform 0;
    }
    frontAndBack
    {
        type            empty;
        value           nonuniform List<scalar> 0();
    }
}


// ************************************************************************* //
