/*--------------------------------*- C++ -*----------------------------------*\
| =========                 |                                                 |
| \\      /  F ield         | OpenFOAM: The Open Source CFD Toolbox           |
|  \\    /   O peration     | Version:  2212                                  |
|   \\  /    A nd           | Website:  www.openfoam.com                      |
|    \\/     M anipulation  |                                                 |
\*---------------------------------------------------------------------------*/
FoamFile
{
    version     2.0;
    format      ascii;
    arch        "LSB;label=32;scalar=64";
    class       volVectorField;
    location    "9.4";
    object      U;
}
// * * * * * * * * * * * * * * * * * * * * * * * * * * * * * * * * * * * * * //

dimensions      [0 1 -1 0 0 0 0];

internalField   nonuniform List<vector> 
400
(
(0.0016817 -0.0016837 0)
(0.00483841 -0.00189216 0)
(0.00659071 -0.00120068 0)
(0.00567433 -0.000575091 0)
(0.00157175 0.000184017 0)
(-0.00682944 0.00173938 0)
(-0.0206082 0.00478625 0)
(-0.0395408 0.00873584 0)
(-0.0608105 0.0112924 0)
(-0.0791369 0.0105124 0)
(-0.0898123 0.00677453 0)
(-0.0904632 0.0016691 0)
(-0.0802264 -0.0036163 0)
(-0.0599946 -0.00827476 0)
(-0.033522 -0.010847 0)
(-0.00529403 -0.00979524 0)
(0.0167225 -0.00477325 0)
(0.0244697 0.00277666 0)
(0.0161784 0.00647208 0)
(0.00431648 0.00471706 0)
(0.00172034 -0.0050649 0)
(0.00316225 -0.00403214 0)
(-0.000417637 0.000587915 0)
(-0.0113303 0.00644169 0)
(-0.0314262 0.01405 0)
(-0.0611496 0.0237736 0)
(-0.096846 0.0330613 0)
(-0.131459 0.0370923 0)
(-0.158972 0.0335172 0)
(-0.176103 0.0234014 0)
(-0.181451 0.00910952 0)
(-0.17508 -0.00698969 0)
(-0.157562 -0.0231738 0)
(-0.129652 -0.0369138 0)
(-0.0936153 -0.0445656 0)
(-0.0521952 -0.0418389 0)
(-0.011401 -0.0263346 0)
(0.0168888 -0.00127961 0)
(0.0178717 0.0162234 0)
(0.00554214 0.0148198 0)
(-0.000239734 -0.00577993 0)
(-0.00538149 0.000802213 0)
(-0.0196098 0.0142995 0)
(-0.0445044 0.031236 0)
(-0.0803415 0.0494455 0)
(-0.122205 0.0643206 0)
(-0.162351 0.0705466 0)
(-0.195273 0.0660288 0)
(-0.218866 0.0521911 0)
(-0.232535 0.031534 0)
(-0.236291 0.00641666 0)
(-0.230805 -0.0211131 0)
(-0.216391 -0.0488729 0)
(-0.192546 -0.0732271 0)
(-0.159008 -0.0890272 0)
(-0.115743 -0.0892304 0)
(-0.0645638 -0.0670298 0)
(-0.0138218 -0.0226655 0)
(0.00948119 0.0179178 0)
(0.00415544 0.0235798 0)
(-0.00347203 0.00045386 0)
(-0.0175152 0.017241 0)
(-0.043517 0.0415014 0)
(-0.0796838 0.0681957 0)
(-0.122961 0.091162 0)
(-0.165856 0.10385 0)
(-0.201928 0.102904 0)
(-0.229252 0.0896724 0)
(-0.248091 0.0673266 0)
(-0.259046 0.03858 0)
(-0.262954 0.00531771 0)
(-0.260621 -0.031117 0)
(-0.251988 -0.0684553 0)
(-0.23601 -0.103744 0)
(-0.210697 -0.131492 0)
(-0.17335 -0.142893 0)
(-0.121404 -0.125767 0)
(-0.0568453 -0.0708542 0)
(-0.000987245 0.00356549 0)
(0.00474229 0.0282403 0)
(-0.00666291 0.0147836 0)
(-0.0287307 0.0441125 0)
(-0.0632921 0.0770974 0)
(-0.104466 0.108924 0)
(-0.147287 0.131214 0)
(-0.184588 0.138202 0)
(-0.212928 0.129508 0)
(-0.232712 0.10875 0)
(-0.24523 0.0797993 0)
(-0.252206 0.0454484 0)
(-0.255326 0.00724077 0)
(-0.255507 -0.0339977 0)
(-0.252528 -0.0770839 0)
(-0.245846 -0.120688 0)
(-0.23265 -0.160826 0)
(-0.208327 -0.189036 0)
(-0.166825 -0.189986 0)
(-0.103452 -0.142883 0)
(-0.0221829 -0.0388547 0)
(0.0073819 0.027101 0)
(-0.00851123 0.0348751 0)
(-0.0351791 0.0766429 0)
(-0.0730969 0.11496 0)
(-0.113271 0.147711 0)
(-0.150537 0.166045 0)
(-0.179401 0.165981 0)
(-0.198928 0.14977 0)
(-0.210675 0.12251 0)
(-0.216625 0.0885483 0)
(-0.219256 0.0508718 0)
(-0.220525 0.0109559 0)
(-0.221426 -0.0307575 0)
(-0.222158 -0.0747212 0)
(-0.222832 -0.121293 0)
(-0.221259 -0.16924 0)
(-0.212356 -0.213072 0)
(-0.188037 -0.238601 0)
(-0.139695 -0.218551 0)
(-0.0628519 -0.118947 0)
(0.00584903 0.0142032 0)
(-0.00829352 0.0570089 0)
(-0.0353449 0.110018 0)
(-0.071843 0.150507 0)
(-0.107087 0.181201 0)
(-0.136725 0.193896 0)
(-0.157133 0.1865 0)
(-0.169044 0.163336 0)
(-0.174583 0.130551 0)
(-0.176157 0.0929048 0)
(-0.176256 0.0534112 0)
(-0.17637 0.013315 0)
(-0.17717 -0.0273101 0)
(-0.179203 -0.0695775 0)
(-0.183012 -0.11473 0)
(-0.18796 -0.163864 0)
(-0.19043 -0.215834 0)
(-0.182542 -0.261686 0)
(-0.154292 -0.275204 0)
(-0.099409 -0.205926 0)
(-0.00890844 -0.0146257 0)
(-0.00613641 0.0776069 0)
(-0.0297965 0.140573 0)
(-0.0614353 0.181247 0)
(-0.0899093 0.208365 0)
(-0.111921 0.214955 0)
(-0.12546 0.200628 0)
(-0.132151 0.171395 0)
(-0.134304 0.134231 0)
(-0.134367 0.0941158 0)
(-0.134267 0.0537517 0)
(-0.134673 0.0138638 0)
(-0.135767 -0.0258884 0)
(-0.137999 -0.0664839 0)
(-0.142063 -0.109102 0)
(-0.148576 -0.15569 0)
(-0.156241 -0.208607 0)
(-0.159096 -0.265933 0)
(-0.146767 -0.308168 0)
(-0.112267 -0.277239 0)
(-0.0309688 -0.0753442 0)
(-0.00273063 0.0936284 0)
(-0.0204226 0.165668 0)
(-0.0451615 0.205642 0)
(-0.0663601 0.228636 0)
(-0.0816313 0.229599 0)
(-0.0901238 0.209611 0)
(-0.0937572 0.175859 0)
(-0.09467 0.135821 0)
(-0.0949479 0.0944741 0)
(-0.0957436 0.0540322 0)
(-0.0970935 0.0145941 0)
(-0.0989034 -0.0245845 0)
(-0.10134 -0.0642343 0)
(-0.104907 -0.105005 0)
(-0.110753 -0.148487 0)
(-0.119614 -0.198608 0)
(-0.128367 -0.259838 0)
(-0.126539 -0.323501 0)
(-0.107492 -0.334805 0)
(-0.0373539 -0.163459 0)
(0.00121938 0.102776 0)
(-0.00894558 0.183512 0)
(-0.025651 0.223199 0)
(-0.0396525 0.242823 0)
(-0.0491338 0.239588 0)
(-0.0540079 0.215614 0)
(-0.0559782 0.178858 0)
(-0.0566915 0.13716 0)
(-0.0576526 0.095405 0)
(-0.0593948 0.0552714 0)
(-0.0616878 0.01631 0)
(-0.0643881 -0.0224911 0)
(-0.0674869 -0.0617385 0)
(-0.0711623 -0.101631 0)
(-0.0763465 -0.142838 0)
(-0.0846093 -0.188982 0)
(-0.0960773 -0.248405 0)
(-0.100661 -0.324368 0)
(-0.0951808 -0.372273 0)
(-0.0309258 -0.242613 0)
(0.00511893 0.103943 0)
(0.0029575 0.193114 0)
(-0.00539116 0.233696 0)
(-0.0125091 0.250857 0)
(-0.0169008 0.244772 0)
(-0.0187883 0.218555 0)
(-0.0194768 0.180493 0)
(-0.0200053 0.138416 0)
(-0.0213036 0.0969594 0)
(-0.0235395 0.0574216 0)
(-0.0264284 0.0190816 0)
(-0.0299118 -0.0191662 0)
(-0.0340062 -0.0579769 0)
(-0.0386499 -0.0974018 0)
(-0.0443886 -0.137358 0)
(-0.052449 -0.180229 0)
(-0.0657663 -0.235704 0)
(-0.0742256 -0.318147 0)
(-0.0812026 -0.396778 0)
(-0.0229432 -0.307174 0)
(0.00845851 0.0974687 0)
(0.0142223 0.194107 0)
(0.0141053 0.237219 0)
(0.0137109 0.253638 0)
(0.0143339 0.246559 0)
(0.0155311 0.219851 0)
(0.0163909 0.181801 0)
(0.0164447 0.140087 0)
(0.015307 0.0991469 0)
(0.0130299 0.0602214 0)
(0.00986207 0.0226255 0)
(0.00575388 -0.0147506 0)
(0.000562266 -0.0526921 0)
(-0.00556326 -0.0912953 0)
(-0.013031 -0.130189 0)
(-0.0219782 -0.17037 0)
(-0.037719 -0.220749 0)
(-0.0487302 -0.304508 0)
(-0.0679048 -0.408522 0)
(-0.0144593 -0.360056 0)
(0.0103301 0.0844888 0)
(0.0234212 0.186511 0)
(0.0310858 0.233342 0)
(0.0370162 0.250183 0)
(0.0426787 0.243344 0)
(0.0476342 0.217559 0)
(0.051072 0.180796 0)
(0.0527482 0.14039 0)
(0.052617 0.100628 0)
(0.0508879 0.0628191 0)
(0.0477782 0.0264558 0)
(0.0431702 -0.00951904 0)
(0.0368966 -0.045997 0)
(0.0290811 -0.0831331 0)
(0.0189258 -0.12056 0)
(0.00759979 -0.158502 0)
(-0.0118154 -0.204461 0)
(-0.0242381 -0.28651 0)
(-0.0558436 -0.411028 0)
(-0.00613741 -0.401904 0)
(0.00987881 0.0672366 0)
(0.0290329 0.170701 0)
(0.0443605 0.222251 0)
(0.0569045 0.241348 0)
(0.0681998 0.236422 0)
(0.0778885 0.21306 0)
(0.0851113 0.178766 0)
(0.0895673 0.140425 0)
(0.0913332 0.102264 0)
(0.0907086 0.0658275 0)
(0.0880235 0.0309783 0)
(0.0829743 -0.00330086 0)
(0.0754595 -0.037544 0)
(0.0657669 -0.0723265 0)
(0.0525144 -0.107453 0)
(0.03758 -0.142802 0)
(0.0131366 -0.184289 0)
(8.34417e-05 -0.263271 0)
(-0.044796 -0.406728 0)
(0.00276608 -0.43628 0)
(0.00693031 0.0493976 0)
(0.0293678 0.148976 0)
(0.0511191 0.203659 0)
(0.0700004 0.22458 0)
(0.0874791 0.221723 0)
(0.103176 0.201565 0)
(0.115849 0.17097 0)
(0.124816 0.136079 0)
(0.129989 0.10088 0)
(0.131611 0.0670511 0)
(0.129947 0.0348425 0)
(0.125024 0.00342995 0)
(0.116392 -0.0274673 0)
(0.104659 -0.0587071 0)
(0.0875633 -0.0903317 0)
(0.0683715 -0.122951 0)
(0.0383044 -0.160871 0)
(0.0238643 -0.237171 0)
(-0.0344377 -0.398974 0)
(0.0134758 -0.464437 0)
(0.00238727 0.0346265 0)
(0.0236436 0.123905 0)
(0.0509647 0.179963 0)
(0.0767007 0.202964 0)
(0.10137 0.202654 0)
(0.124257 0.186253 0)
(0.143714 0.160196 0)
(0.158526 0.129764 0)
(0.168274 0.0985701 0)
(0.173165 0.068303 0)
(0.173141 0.0395598 0)
(0.168913 0.011935 0)
(0.159075 -0.0149138 0)
(0.145341 -0.0417202 0)
(0.124035 -0.0687641 0)
(0.100491 -0.097567 0)
(0.0646322 -0.132723 0)
(0.047012 -0.207466 0)
(-0.0227021 -0.38709 0)
(0.028534 -0.485563 0)
(-0.00342624 0.0286131 0)
(0.0100738 0.101503 0)
(0.0371169 0.148705 0)
(0.0689864 0.169474 0)
(0.101885 0.170695 0)
(0.13361 0.158405 0)
(0.161612 0.137968 0)
(0.184162 0.113564 0)
(0.200214 0.0882751 0)
(0.21014 0.0636317 0)
(0.213066 0.0403794 0)
(0.210812 0.0184005 0)
(0.200547 -0.00267975 0)
(0.185913 -0.0233181 0)
(0.161095 -0.0439854 0)
(0.134472 -0.0677481 0)
(0.0929361 -0.1017 0)
(0.0698802 -0.180019 0)
(-0.00436536 -0.370056 0)
(0.0521623 -0.491643 0)
(-0.014012 0.0185169 0)
(-0.007516 0.088176 0)
(0.0192218 0.124197 0)
(0.0564592 0.137325 0)
(0.0976181 0.136918 0)
(0.138006 0.127736 0)
(0.174264 0.113079 0)
(0.204114 0.0952991 0)
(0.226012 0.0768251 0)
(0.241108 0.0586748 0)
(0.247144 0.0418008 0)
(0.24806 0.0261054 0)
(0.23872 0.0117406 0)
(0.226901 -0.00205148 0)
(0.201899 -0.0160924 0)
(0.177911 -0.035029 0)
(0.133559 -0.0678074 0)
(0.107843 -0.146004 0)
(0.0374735 -0.326119 0)
(0.092368 -0.455871 0)
(-0.10602 0.0824177 0)
(-0.07776 0.0689907 0)
(-0.0485678 0.0733706 0)
(0.00378245 0.0778912 0)
(0.0573004 0.0782256 0)
(0.110035 0.0739616 0)
(0.157207 0.0666263 0)
(0.199573 0.0572213 0)
(0.231687 0.0475448 0)
(0.259841 0.0378877 0)
(0.275569 0.0292198 0)
(0.290724 0.021233 0)
(0.291076 0.014475 0)
(0.295185 0.0080913 0)
(0.278881 0.00112291 0)
(0.271664 -0.0100146 0)
(0.23235 -0.0355693 0)
(0.218144 -0.0954197 0)
(0.150208 -0.229723 0)
(0.170672 -0.341455 0)
(0.129969 0.103745 0)
(0.15832 0.0752278 0)
(0.212165 0.0532276 0)
(0.270673 0.0416228 0)
(0.323249 0.0359131 0)
(0.375692 0.0319487 0)
(0.420288 0.0289166 0)
(0.465608 0.025581 0)
(0.498705 0.022903 0)
(0.533956 0.0197106 0)
(0.553394 0.0175476 0)
(0.579204 0.0146097 0)
(0.585342 0.0131648 0)
(0.603681 0.0103458 0)
(0.5951 0.00938345 0)
(0.603601 0.00499974 0)
(0.567791 8.91611e-05 0)
(0.547613 -0.018316 0)
(0.435691 -0.0504144 0)
(0.336754 -0.101386 0)
)
;

boundaryField
{
    movingWall
    {
        type            fixedValue;
        value           uniform (1 0 0);
    }
    fixedWalls
    {
        type            noSlip;
    }
    frontAndBack
    {
        type            empty;
    }
}


// ************************************************************************* //
