/*--------------------------------*- C++ -*----------------------------------*\
| =========                 |                                                 |
| \\      /  F ield         | OpenFOAM: The Open Source CFD Toolbox           |
|  \\    /   O peration     | Version:  2212                                  |
|   \\  /    A nd           | Website:  www.openfoam.com                      |
|    \\/     M anipulation  |                                                 |
\*---------------------------------------------------------------------------*/
FoamFile
{
    version     2.0;
    format      ascii;
    arch        "LSB;label=32;scalar=64";
    class       volScalarField;
    location    "10";
    object      p;
}
// * * * * * * * * * * * * * * * * * * * * * * * * * * * * * * * * * * * * * //

dimensions      [0 2 -2 0 0 0 0];

internalField   nonuniform List<scalar> 
400
(
5.46236e-07
-0.000150438
-0.000534508
-0.0010717
-0.00173241
-0.00249387
-0.00318499
-0.00359755
-0.00356532
-0.00293405
-0.00154852
0.000619407
0.00324961
0.00551414
0.0065339
0.00592313
0.00400241
0.00215004
0.00111108
0.00104204
0.000116448
-5.79625e-05
-0.0003769
-0.000764068
-0.00124398
-0.0018881
-0.00270619
-0.00354349
-0.00407997
-0.00393838
-0.0028464
-0.000824836
0.00168941
0.003961
0.00512487
0.00474337
0.00310336
0.00137513
0.000593542
0.000684613
0.000536558
0.000265097
-7.71866e-05
-0.000559537
-0.00134723
-0.00258059
-0.0042191
-0.00598371
-0.00740246
-0.00794376
-0.00726408
-0.0054619
-0.00289156
-0.000194546
0.00179191
0.00242801
0.00170917
0.000502487
-0.000395722
-0.000392437
0.00115205
0.000741372
0.000191999
-0.00077471
-0.00245105
-0.00493775
-0.00799501
-0.0111203
-0.013703
-0.0151765
-0.0152064
-0.0138395
-0.0112933
-0.00802881
-0.00475203
-0.00220953
-0.000870191
-0.000706018
-0.00128864
-0.00191797
0.0015834
0.000973817
-2.27707e-05
-0.00192399
-0.00500654
-0.00917986
-0.0139133
-0.0184792
-0.0222154
-0.024652
-0.0255276
-0.0247219
-0.0223626
-0.0187427
-0.0143041
-0.0096553
-0.00559182
-0.00294869
-0.00219308
-0.00401777
0.00129342
0.000445107
-0.00119724
-0.00430423
-0.00900476
-0.0148801
-0.021072
-0.0267142
-0.0311899
-0.034177
-0.0355437
-0.0351878
-0.0331953
-0.0297173
-0.0248983
-0.0189601
-0.0125047
-0.00694803
-0.00440067
-0.00652392
-4.82521e-05
-0.00114746
-0.00349931
-0.00779657
-0.013932
-0.0211136
-0.028235
-0.0344061
-0.0391267
-0.0422298
-0.0437174
-0.0436081
-0.0419705
-0.0388767
-0.0343092
-0.0281558
-0.0205381
-0.0127023
-0.00785446
-0.00774773
-0.00245038
-0.00374203
-0.00669835
-0.0119129
-0.0190391
-0.0269806
-0.0345024
-0.040777
-0.0454482
-0.0484741
-0.0499366
-0.0499279
-0.0485274
-0.0457858
-0.0416601
-0.0359249
-0.0283243
-0.0193701
-0.0118218
-0.00798028
-0.00553745
-0.00691497
-0.0102633
-0.0160213
-0.0236571
-0.031888
-0.0394492
-0.0456103
-0.0501343
-0.053054
-0.054483
-0.0545231
-0.0532491
-0.0507225
-0.0469593
-0.0418098
-0.0348661
-0.0259465
-0.0167084
-0.00999411
-0.00873345
-0.0100855
-0.0135971
-0.0195413
-0.0272851
-0.0354852
-0.0429096
-0.0489067
-0.0533058
-0.0561634
-0.0575871
-0.0576583
-0.0564401
-0.0540074
-0.0504479
-0.0457578
-0.039632
-0.0315225
-0.0223202
-0.0143392
-0.0115037
-0.0127574
-0.0162186
-0.0220532
-0.0296055
-0.0375865
-0.0448236
-0.0506958
-0.0550387
-0.0578897
-0.0593318
-0.0594233
-0.0582143
-0.0557848
-0.0522833
-0.0478495
-0.0424289
-0.0353809
-0.0271967
-0.0191784
-0.0135489
-0.0146181
-0.0178551
-0.0233143
-0.0304292
-0.0380605
-0.0451148
-0.0509461
-0.0553248
-0.0582357
-0.0597231
-0.0598255
-0.0585837
-0.0560788
-0.0525119
-0.0481351
-0.0432045
-0.0370546
-0.0300306
-0.0224161
-0.0148368
-0.0155673
-0.018351
-0.023209
-0.0296916
-0.0368765
-0.0437616
-0.0496365
-0.0541506
-0.0571963
-0.0587651
-0.0588722
-0.0575531
-0.0549117
-0.0511736
-0.046653
-0.0419633
-0.0362985
-0.0302248
-0.0228948
-0.0154672
-0.0157215
-0.0177765
-0.0217451
-0.027388
-0.0340294
-0.0407477
-0.0467371
-0.0514888
-0.0547638
-0.0564775
-0.0566185
-0.0551971
-0.052349
-0.0483429
-0.0435793
-0.0387288
-0.0331401
-0.0280986
-0.0202784
-0.0155738
-0.0152976
-0.0163373
-0.0190868
-0.0236517
-0.0296322
-0.0361691
-0.0423327
-0.047424
-0.0510354
-0.0529759
-0.0531792
-0.051687
-0.0485879
-0.0442239
-0.0390518
-0.0337805
-0.0280708
-0.0242309
-0.0143845
-0.0152763
-0.0145496
-0.0142602
-0.0154252
-0.0186838
-0.0238932
-0.0302294
-0.0366122
-0.0421348
-0.0461978
-0.0484857
-0.0488628
-0.0473498
-0.0440181
-0.0392468
-0.0335176
-0.0276406
-0.0216292
-0.0180536
-0.00383307
-0.0146615
-0.0136177
-0.0117065
-0.0110806
-0.0129531
-0.0173794
-0.0235327
-0.0301685
-0.0361909
-0.0408087
-0.0435757
-0.0442587
-0.0428479
-0.0393742
-0.0341838
-0.027689
-0.0206823
-0.0132768
-0.00678665
0.0160522
-0.0145828
-0.0126568
-0.00864824
-0.0062345
-0.0069099
-0.0107454
-0.016817
-0.0237386
-0.0302968
-0.0355371
-0.0389012
-0.0400326
-0.0388754
-0.0354463
-0.0298948
-0.0222756
-0.0128732
-0.000689367
0.0166936
0.0570627
-0.0117943
-0.0118304
-0.00572606
-0.00177516
-0.00176514
-0.00540468
-0.0115748
-0.018814
-0.0258741
-0.0316857
-0.0356602
-0.0373598
-0.0366834
-0.0333539
-0.0272234
-0.0175416
-0.00314913
0.0204888
0.0607027
0.12982
-0.0295165
-0.0106295
-0.000608934
0.00308056
0.00244797
-0.0015571
-0.00799918
-0.0155526
-0.0229749
-0.0291721
-0.03353
-0.035586
-0.0351993
-0.0319544
-0.0252268
-0.01286
0.00942183
0.0511701
0.122876
0.226075
)
;

boundaryField
{
    movingWall
    {
        type            zeroGradient;
    }
    fixedWalls
    {
        type            zeroGradient;
    }
    frontAndBack
    {
        type            empty;
    }
}


// ************************************************************************* //
