/*--------------------------------*- C++ -*----------------------------------*\
| =========                 |                                                 |
| \\      /  F ield         | OpenFOAM: The Open Source CFD Toolbox           |
|  \\    /   O peration     | Version:  2212                                  |
|   \\  /    A nd           | Website:  www.openfoam.com                      |
|    \\/     M anipulation  |                                                 |
\*---------------------------------------------------------------------------*/
FoamFile
{
    version     2.0;
    format      ascii;
    arch        "LSB;label=32;scalar=64";
    class       surfaceScalarField;
    location    "10";
    object      phi;
}
// * * * * * * * * * * * * * * * * * * * * * * * * * * * * * * * * * * * * * //

dimensions      [0 3 -1 0 0 0 0];

oriented        oriented;

internalField   nonuniform List<scalar> 
760
(
1.56076e-07
-1.56125e-07
2.93618e-07
-1.37542e-07
3.0998e-07
-1.63619e-08
1.83671e-07
1.26309e-07
-1.20315e-07
3.03986e-07
-6.65929e-07
5.45613e-07
-1.48526e-06
8.19331e-07
-2.49084e-06
1.00558e-06
-3.48031e-06
9.89472e-07
-4.2203e-06
7.39992e-07
-4.54393e-06
3.23632e-07
-4.35362e-06
-1.90309e-07
-3.59375e-06
-7.59871e-07
-2.379e-06
-1.21475e-06
-9.40051e-07
-1.43895e-06
3.47709e-07
-1.28776e-06
1.0899e-06
-7.42195e-07
1.03306e-06
5.68436e-08
4.60989e-07
5.72073e-07
4.6099e-07
1.2504e-07
-2.81165e-07
7.45942e-08
-8.70966e-08
-2.9704e-07
3.55272e-07
-1.07891e-06
9.08184e-07
-2.31593e-06
1.541e-06
-3.92738e-06
2.15706e-06
-5.66226e-06
2.55421e-06
-7.20697e-06
2.55029e-06
-8.33687e-06
2.11937e-06
-8.94221e-06
1.34534e-06
-8.97614e-06
3.57563e-07
-8.41615e-06
-7.50297e-07
-7.2936e-06
-1.88243e-06
-5.64202e-06
-2.86632e-06
-3.60582e-06
-3.47515e-06
-1.49026e-06
-3.40333e-06
1.78698e-07
-2.41115e-06
8.58966e-07
-6.23426e-07
5.25699e-07
9.05337e-07
9.8669e-07
-1.27607e-07
-1.53558e-07
-6.33939e-07
4.19236e-07
-1.62494e-06
1.34627e-06
-3.14147e-06
2.42472e-06
-5.05751e-06
3.45704e-06
-7.07334e-06
4.17289e-06
-8.87341e-06
4.35428e-06
-1.02776e-05
3.95453e-06
-1.12344e-05
3.07614e-06
-1.1736e-05
1.84689e-06
-1.173e-05
3.51612e-07
-1.12711e-05
-1.2092e-06
-1.03384e-05
-2.81512e-06
-8.87779e-06
-4.32695e-06
-6.86955e-06
-5.48339e-06
-4.40321e-06
-5.86967e-06
-1.87875e-06
-4.93561e-06
-8.64095e-08
-2.41576e-06
2.94686e-07
5.2424e-07
1.28138e-06
-5.00531e-07
3.46973e-07
-1.56e-06
1.4787e-06
-3.11951e-06
2.90578e-06
-5.0814e-06
4.38661e-06
-7.18527e-06
5.56091e-06
-9.12326e-06
6.11088e-06
-1.06931e-05
5.92412e-06
-1.18523e-05
5.11372e-06
-1.26289e-05
3.85275e-06
-1.30575e-05
2.27553e-06
-1.31226e-05
4.16663e-07
-1.28831e-05
-1.44871e-06
-1.23003e-05
-3.39792e-06
-1.12724e-05
-5.35485e-06
-9.66872e-06
-7.08707e-06
-7.36461e-06
-8.17378e-06
-4.39876e-06
-7.90147e-06
-1.37807e-06
-5.43645e-06
1.20731e-07
-9.74558e-07
1.40211e-06
-8.61952e-07
1.20893e-06
-2.36173e-06
2.97848e-06
-4.23282e-06
4.77687e-06
-6.28018e-06
6.43397e-06
-8.2226e-06
7.50332e-06
-9.83734e-06
7.72562e-06
-1.10477e-05
7.13452e-06
-1.18803e-05
5.94634e-06
-1.23969e-05
4.36935e-06
-1.26701e-05
2.54873e-06
-1.27907e-05
5.37249e-07
-1.27451e-05
-1.49434e-06
-1.25244e-05
-3.61857e-06
-1.20499e-05
-5.82942e-06
-1.11352e-05
-8.00176e-06
-9.49245e-06
-9.81651e-06
-6.82221e-06
-1.05717e-05
-3.223e-06
-9.03566e-06
-2.61172e-07
-3.93638e-06
1.14093e-06
-1.08711e-06
2.29603e-06
-2.78466e-06
4.67603e-06
-4.67847e-06
6.67069e-06
-6.53656e-06
8.29206e-06
-8.13456e-06
9.10133e-06
-9.34147e-06
8.93253e-06
-1.01533e-05
7.94635e-06
-1.06352e-05
6.42819e-06
-1.08772e-05
4.61143e-06
-1.09792e-05
2.65069e-06
-1.10624e-05
6.20453e-07
-1.1113e-05
-1.44379e-06
-1.11471e-05
-3.58443e-06
-1.1136e-05
-5.84055e-06
-1.09263e-05
-8.21146e-06
-1.01911e-05
-1.05517e-05
-8.43601e-06
-1.23268e-05
-5.24502e-06
-1.22267e-05
-1.15867e-06
-8.02273e-06
-1.77312e-08
-1.11122e-06
3.40726e-06
-2.75934e-06
6.32415e-06
-4.45734e-06
8.36869e-06
-5.9934e-06
9.82812e-06
-7.20743e-06
1.03153e-05
-8.03709e-06
9.7622e-06
-8.52018e-06
8.42943e-06
-8.74368e-06
6.65168e-06
-8.81102e-06
4.67878e-06
-8.81893e-06
2.6586e-06
-8.84948e-06
6.50999e-07
-8.92083e-06
-1.37244e-06
-9.05295e-06
-3.45231e-06
-9.2575e-06
-5.63599e-06
-9.47851e-06
-7.99045e-06
-9.48522e-06
-1.0545e-05
-8.75895e-06
-1.3053e-05
-6.5412e-06
-1.44444e-05
-2.42494e-06
-1.2139e-05
-2.44267e-06
-9.36607e-07
4.34387e-06
-2.34895e-06
7.73649e-06
-3.7369e-06
9.75663e-06
-4.91695e-06
1.10082e-05
-5.78816e-06
1.11866e-05
-6.33374e-06
1.03078e-05
-6.61089e-06
8.70659e-06
-6.71061e-06
6.75141e-06
-6.72873e-06
4.6969e-06
-6.73794e-06
2.66781e-06
-6.77355e-06
6.86617e-07
-6.85237e-06
-1.29363e-06
-6.99529e-06
-3.30939e-06
-7.23298e-06
-5.3983e-06
-7.58304e-06
-7.64039e-06
-7.95549e-06
-1.01726e-05
-7.94129e-06
-1.30672e-05
-6.72249e-06
-1.56632e-05
-3.58981e-06
-1.52717e-05
-6.03248e-06
-6.26045e-07
4.96991e-06
-1.68971e-06
8.80016e-06
-2.72395e-06
1.07909e-05
-3.56414e-06
1.18484e-05
-4.15479e-06
1.17772e-05
-4.5061e-06
1.06591e-05
-4.67699e-06
8.87748e-06
-4.74579e-06
6.82021e-06
-4.7846e-06
4.73571e-06
-4.83661e-06
2.71982e-06
-4.91164e-06
7.61649e-07
-5.01585e-06
-1.18942e-06
-5.15898e-06
-3.16626e-06
-5.36956e-06
-5.18773e-06
-5.70276e-06
-7.30719e-06
-6.17278e-06
-9.70254e-06
-6.56293e-06
-1.26771e-05
-6.13287e-06
-1.60933e-05
-3.92706e-06
-1.74775e-05
-9.95954e-06
-2.33262e-07
5.20317e-06
-8.95002e-07
9.4619e-06
-1.56755e-06
1.14634e-05
-2.09808e-06
1.23789e-05
-2.45896e-06
1.21381e-05
-2.67449e-06
1.08746e-05
-2.79287e-06
8.99586e-06
-2.86729e-06
6.89463e-06
-2.94221e-06
4.81063e-06
-3.03944e-06
2.81704e-06
-3.16167e-06
8.83878e-07
-3.30838e-06
-1.04271e-06
-3.47959e-06
-2.99504e-06
-3.68736e-06
-4.97996e-06
-3.982e-06
-7.01254e-06
-4.44598e-06
-9.23856e-06
-5.02798e-06
-1.20951e-05
-5.12732e-06
-1.59939e-05
-3.56073e-06
-1.90441e-05
-1.35203e-05
1.63763e-07
5.03941e-06
-7.04521e-08
9.69611e-06
-4.0392e-07
1.17969e-05
-6.55449e-07
1.26304e-05
-8.10977e-07
1.22936e-05
-9.01644e-07
1.09653e-05
-9.66807e-07
9.06102e-06
-1.03832e-06
6.96614e-06
-1.1327e-06
4.90502e-06
-1.25774e-06
2.94208e-06
-1.41598e-06
1.04213e-06
-1.60957e-06
-8.49116e-07
-1.83692e-06
-2.76769e-06
-2.09565e-06
-4.72124e-06
-2.41291e-06
-6.69528e-06
-2.88007e-06
-8.7714e-06
-3.56271e-06
-1.14124e-05
-4.02713e-06
-1.55295e-05
-3.02686e-06
-2.00444e-05
-1.65471e-05
5.02472e-07
4.53694e-06
7.00709e-07
9.49788e-06
7.44109e-07
1.17535e-05
7.7986e-07
1.25947e-05
8.24822e-07
1.22487e-05
8.53696e-07
1.09364e-05
8.46847e-07
9.06787e-06
7.9609e-07
7.0169e-06
7.02223e-07
4.99888e-06
5.66934e-07
3.07736e-06
3.8499e-07
1.22407e-06
1.50199e-07
-6.14325e-07
-1.38978e-07
-2.47851e-06
-4.89178e-07
-4.37104e-06
-9.03914e-07
-6.28055e-06
-1.42654e-06
-8.24877e-06
-2.20455e-06
-1.06344e-05
-2.95402e-06
-1.478e-05
-2.46097e-06
-2.05374e-05
-1.90081e-05
7.59769e-07
3.77717e-06
1.35955e-06
8.89809e-06
1.75404e-06
1.1359e-05
2.0851e-06
1.22636e-05
2.35964e-06
1.19741e-05
2.54754e-06
1.07485e-05
2.64074e-06
8.97467e-06
2.64993e-06
7.00771e-06
2.58907e-06
5.05975e-06
2.46447e-06
3.20196e-06
2.26848e-06
1.42006e-06
1.987e-06
-3.32844e-07
1.62071e-06
-2.11223e-06
1.16474e-06
-3.91507e-06
6.14874e-07
-5.73068e-06
-7.99778e-08
-7.55392e-06
-9.53726e-07
-9.76066e-06
-1.91686e-06
-1.38169e-05
-1.92416e-06
-2.05301e-05
-2.09322e-05
8.75524e-07
2.90164e-06
1.819e-06
7.95461e-06
2.56406e-06
1.06139e-05
3.20814e-06
1.16195e-05
3.75873e-06
1.14235e-05
4.17263e-06
1.03346e-05
4.43405e-06
8.71326e-06
4.55693e-06
6.88483e-06
4.56405e-06
5.05263e-06
4.47036e-06
3.29565e-06
4.27363e-06
1.61679e-06
3.94119e-06
-3.98404e-10
3.49384e-06
-1.66488e-06
2.90597e-06
-3.3272e-06
2.17887e-06
-5.00357e-06
1.33174e-06
-6.70679e-06
2.74279e-07
-8.7032e-06
-9.53195e-07
-1.25894e-05
-1.42491e-06
-2.00584e-05
-2.23572e-05
8.11405e-07
2.09024e-06
1.96497e-06
6.80105e-06
3.01261e-06
9.56631e-06
3.99066e-06
1.06415e-05
4.87223e-06
1.0542e-05
5.59132e-06
9.6155e-06
6.10884e-06
8.19573e-06
6.42773e-06
6.56594e-06
6.56868e-06
4.91168e-06
6.54949e-06
3.31484e-06
6.36825e-06
1.79803e-06
6.02228e-06
3.45574e-07
5.47849e-06
-1.1211e-06
4.74443e-06
-2.59313e-06
3.81229e-06
-4.07143e-06
2.71114e-06
-5.60564e-06
1.40164e-06
-7.3937e-06
-1.48963e-07
-1.10388e-05
-9.09066e-07
-1.92983e-05
-2.32662e-05
5.81432e-07
1.50881e-06
1.77021e-06
5.61227e-06
3.11536e-06
8.22117e-06
4.47303e-06
9.28381e-06
5.74574e-06
9.26924e-06
6.83489e-06
8.52636e-06
7.67506e-06
7.35556e-06
8.25354e-06
5.98746e-06
8.58257e-06
4.58265e-06
8.67872e-06
3.2187e-06
8.54856e-06
1.92818e-06
8.1892e-06
7.04935e-07
7.55649e-06
-4.8838e-07
6.66788e-06
-1.70453e-06
5.51079e-06
-2.91434e-06
4.12626e-06
-4.22111e-06
2.5884e-06
-5.85584e-06
9.69008e-07
-9.41943e-06
-1.38953e-07
-1.81903e-05
-2.34052e-05
1.5432e-07
1.35449e-06
1.04864e-06
4.71795e-06
2.53343e-06
6.73637e-06
4.2635e-06
7.55374e-06
5.99347e-06
7.53927e-06
7.53558e-06
6.98425e-06
8.78712e-06
6.10402e-06
9.71825e-06
5.05633e-06
1.0324e-05
3.97691e-06
1.06156e-05
2.92708e-06
1.0599e-05
1.94478e-06
1.02797e-05
1.02427e-06
9.61122e-06
1.80082e-07
8.61629e-06
-7.09602e-07
7.28461e-06
-1.58267e-06
5.66844e-06
-2.60493e-06
3.929e-06
-4.1164e-06
2.25064e-06
-7.74107e-06
6.56905e-07
-1.65966e-05
-2.27483e-05
-5.19141e-07
1.87363e-06
2.03711e-07
3.99509e-06
1.76784e-06
5.17224e-06
3.84138e-06
5.4802e-06
6.00708e-06
5.37357e-06
7.97789e-06
5.01344e-06
9.61719e-06
4.46472e-06
1.08834e-05
3.79016e-06
1.17588e-05
3.10144e-06
1.22597e-05
2.42623e-06
1.23893e-05
1.81516e-06
1.21674e-05
1.24618e-06
1.16182e-05
7.29256e-07
1.0712e-05
1.96622e-07
9.45348e-06
-3.2416e-07
7.9165e-06
-1.06795e-06
6.28696e-06
-2.48686e-06
4.46676e-06
-5.92087e-06
2.05974e-06
-1.41896e-05
-2.06885e-05
-4.18156e-06
6.05519e-06
-3.64415e-06
3.45768e-06
-1.24382e-06
2.77192e-06
1.56261e-06
2.67376e-06
4.31116e-06
2.62502e-06
6.85475e-06
2.46986e-06
9.07964e-06
2.23983e-06
1.09253e-05
1.94446e-06
1.23732e-05
1.65356e-06
1.34502e-05
1.34926e-06
1.41733e-05
1.09209e-06
1.45872e-05
8.32252e-07
1.46796e-05
6.36905e-07
1.44593e-05
4.16914e-07
1.39224e-05
2.12676e-07
1.30849e-05
-2.30456e-07
1.19346e-05
-1.33657e-06
1.01167e-05
-4.10291e-06
5.63958e-06
-9.71248e-06
-1.50489e-05
6.05519e-06
9.51287e-06
1.22848e-05
1.49586e-05
1.75836e-05
2.00534e-05
2.22933e-05
2.42377e-05
2.58913e-05
2.72405e-05
2.83326e-05
2.91649e-05
2.98018e-05
3.02187e-05
3.04314e-05
3.02009e-05
2.88643e-05
2.47614e-05
1.50489e-05
)
;

boundaryField
{
    movingWall
    {
        type            calculated;
        value           uniform 0;
    }
    fixedWalls
    {
        type            calculated;
        value           uniform 0;
    }
    frontAndBack
    {
        type            empty;
        value           nonuniform List<scalar> 0();
    }
}


// ************************************************************************* //
