/*--------------------------------*- C++ -*----------------------------------*\
| =========                 |                                                 |
| \\      /  F ield         | OpenFOAM: The Open Source CFD Toolbox           |
|  \\    /   O peration     | Version:  2212                                  |
|   \\  /    A nd           | Website:  www.openfoam.com                      |
|    \\/     M anipulation  |                                                 |
\*---------------------------------------------------------------------------*/
FoamFile
{
    version     2.0;
    format      ascii;
    arch        "LSB;label=32;scalar=64";
    class       volScalarField;
    location    "10";
    object      T;
}
// * * * * * * * * * * * * * * * * * * * * * * * * * * * * * * * * * * * * * //

dimensions      [0 0 0 1 0 0 0];

internalField   nonuniform List<scalar> 
400
(
0.891958
0.894541
0.899775
0.907477
0.916374
0.924366
0.929957
0.933091
0.934712
0.93579
0.936757
0.937743
0.938782
0.939836
0.940731
0.94118
0.940715
0.938818
0.935745
0.933223
0.89532
0.898459
0.90474
0.913679
0.923028
0.929783
0.933001
0.934116
0.934527
0.934838
0.935402
0.93643
0.937986
0.939979
0.941989
0.943374
0.943152
0.940571
0.936614
0.933742
0.90055
0.904724
0.91246
0.921727
0.928949
0.932015
0.932063
0.930914
0.929432
0.928308
0.928146
0.929366
0.931983
0.935911
0.940426
0.944455
0.9462
0.943855
0.938211
0.9347
0.905659
0.910897
0.919296
0.926828
0.930159
0.929156
0.925817
0.921523
0.917249
0.914089
0.912861
0.914264
0.918124
0.924531
0.932602
0.941056
0.947512
0.948787
0.942454
0.937003
0.909602
0.91547
0.923277
0.927696
0.926654
0.92145
0.914123
0.906009
0.898577
0.893157
0.89071
0.892044
0.896944
0.9056
0.917238
0.930607
0.943331
0.951677
0.95018
0.941339
0.912243
0.918134
0.924366
0.925106
0.919683
0.910217
0.898733
0.886911
0.876613
0.869228
0.865724
0.866736
0.872247
0.882366
0.896609
0.913932
0.932299
0.948276
0.956049
0.947724
0.913785
0.919151
0.923269
0.920365
0.910933
0.89755
0.882379
0.867557
0.855151
0.84649
0.842369
0.843104
0.848796
0.859497
0.875047
0.894827
0.917224
0.939131
0.955461
0.956858
0.914534
0.919098
0.921113
0.915062
0.902224
0.885516
0.867414
0.850452
0.836742
0.827456
0.823108
0.823734
0.829349
0.839959
0.855638
0.876367
0.901308
0.927696
0.950341
0.961778
0.914738
0.918425
0.918607
0.910082
0.894626
0.875445
0.855309
0.836988
0.82255
0.812985
0.808553
0.809135
0.814622
0.824897
0.840018
0.860399
0.886351
0.916094
0.943737
0.959714
0.914593
0.917531
0.916462
0.906415
0.889285
0.868473
0.847014
0.827826
0.812913
0.803105
0.798507
0.798962
0.804311
0.814312
0.82878
0.848121
0.873646
0.905381
0.937793
0.958168
0.914211
0.916601
0.914834
0.90409
0.886172
0.864618
0.842611
0.823058
0.807862
0.797763
0.792833
0.792968
0.798037
0.807749
0.821653
0.839773
0.863879
0.896104
0.932253
0.957177
0.913659
0.915748
0.913932
0.903499
0.885838
0.864446
0.842555
0.822996
0.807607
0.797147
0.791752
0.791374
0.795921
0.805112
0.818348
0.83518
0.857255
0.888781
0.927829
0.95664
0.912932
0.914934
0.913502
0.904103
0.887571
0.867201
0.846173
0.827179
0.81198
0.801373
0.795571
0.794572
0.798342
0.806619
0.818798
0.834156
0.853778
0.883412
0.924328
0.956582
0.91198
0.914112
0.913492
0.905915
0.891519
0.873146
0.853795
0.835966
0.821344
0.810786
0.80462
0.802846
0.805532
0.81242
0.822983
0.836396
0.853275
0.880287
0.922069
0.956917
0.910717
0.91311
0.913287
0.907683
0.895944
0.880338
0.863526
0.847729
0.834463
0.824554
0.818399
0.815984
0.817427
0.822526
0.830866
0.84188
0.855842
0.879359
0.920882
0.957653
0.909207
0.911951
0.91315
0.909812
0.901299
0.8892
0.875682
0.862606
0.851281
0.842456
0.836528
0.833554
0.833563
0.836506
0.842131
0.850168
0.860972
0.880293
0.920835
0.958813
0.907718
0.910405
0.911882
0.910139
0.904565
0.896176
0.886486
0.876871
0.86829
0.861338
0.856272
0.853238
0.852139
0.853086
0.856065
0.861033
0.869004
0.884663
0.923194
0.960783
0.906662
0.909759
0.911997
0.911576
0.908596
0.903653
0.897628
0.891365
0.885475
0.880414
0.87635
0.873472
0.871764
0.871332
0.872456
0.875017
0.880912
0.892994
0.927634
0.96327
0.892969
0.907017
0.907292
0.907136
0.905569
0.903345
0.900736
0.898287
0.896024
0.89436
0.893149
0.892621
0.892695
0.893325
0.894974
0.897068
0.902406
0.911684
0.938033
0.967532
0.924766
0.933915
0.938853
0.941858
0.943514
0.944583
0.945182
0.945779
0.946213
0.946842
0.947397
0.948202
0.948946
0.949941
0.950891
0.9522
0.953848
0.957305
0.96415
0.976266
)
;

boundaryField
{
    movingWall
    {
        type            fixedValue;
        value           uniform 1;
    }
    fixedWalls
    {
        type            zeroGradient;
    }
    frontAndBack
    {
        type            empty;
    }
}


// ************************************************************************* //
