/*--------------------------------*- C++ -*----------------------------------*\
| =========                 |                                                 |
| \\      /  F ield         | OpenFOAM: The Open Source CFD Toolbox           |
|  \\    /   O peration     | Version:  2212                                  |
|   \\  /    A nd           | Website:  www.openfoam.com                      |
|    \\/     M anipulation  |                                                 |
\*---------------------------------------------------------------------------*/
FoamFile
{
    version     2.0;
    format      ascii;
    arch        "LSB;label=32;scalar=64";
    class       volVectorField;
    location    "10";
    object      U;
}
// * * * * * * * * * * * * * * * * * * * * * * * * * * * * * * * * * * * * * //

dimensions      [0 1 -1 0 0 0 0];

internalField   nonuniform List<vector> 
400
(
(0.00168173 -0.00168377 0)
(0.00483854 -0.00189223 0)
(0.00659096 -0.00120071 0)
(0.00567462 -0.00057512 0)
(0.00157203 0.00018399 0)
(-0.00682929 0.00173938 0)
(-0.0206083 0.00478634 0)
(-0.0395413 0.00873605 0)
(-0.0608115 0.0112927 0)
(-0.0791381 0.0105125 0)
(-0.0898134 0.00677452 0)
(-0.0904639 0.00166897 0)
(-0.0802266 -0.00361651 0)
(-0.0599944 -0.00827499 0)
(-0.0335213 -0.0108472 0)
(-0.00529293 -0.00979531 0)
(0.0167237 -0.0047731 0)
(0.0244706 0.00277687 0)
(0.0161787 0.00647227 0)
(0.00431653 0.00471715 0)
(0.00172044 -0.00506514 0)
(0.00316252 -0.00403238 0)
(-0.000417272 0.000587801 0)
(-0.0113301 0.00644171 0)
(-0.0314263 0.0140502 0)
(-0.0611503 0.0237741 0)
(-0.0968474 0.033062 0)
(-0.131461 0.037093 0)
(-0.158974 0.0335177 0)
(-0.176106 0.0234015 0)
(-0.181453 0.0091093 0)
(-0.175082 -0.0069902 0)
(-0.157563 -0.0231746 0)
(-0.129653 -0.0369146 0)
(-0.0936155 -0.0445663 0)
(-0.0521948 -0.0418393 0)
(-0.0114002 -0.0263345 0)
(0.0168897 -0.00127906 0)
(0.0178722 0.016224 0)
(0.00554223 0.0148201 0)
(-0.000239634 -0.00578035 0)
(-0.00538129 0.000801834 0)
(-0.0196097 0.0142995 0)
(-0.0445048 0.0312365 0)
(-0.0803426 0.0494465 0)
(-0.122207 0.0643219 0)
(-0.162354 0.070548 0)
(-0.195277 0.0660299 0)
(-0.21887 0.0521918 0)
(-0.232539 0.0315342 0)
(-0.236294 0.00641622 0)
(-0.230809 -0.0211141 0)
(-0.216394 -0.0488743 0)
(-0.192548 -0.0732286 0)
(-0.15901 -0.0890286 0)
(-0.115744 -0.0892313 0)
(-0.064564 -0.0670299 0)
(-0.0138214 -0.0226647 0)
(0.00948151 0.0179188 0)
(0.00415545 0.0235803 0)
(-0.00347203 0.000453355 0)
(-0.0175153 0.0172408 0)
(-0.0435176 0.0415019 0)
(-0.0796851 0.068197 0)
(-0.122964 0.091164 0)
(-0.165859 0.103852 0)
(-0.201932 0.102906 0)
(-0.229257 0.089674 0)
(-0.248097 0.0673276 0)
(-0.259051 0.0385802 0)
(-0.262959 0.00531708 0)
(-0.260627 -0.0311184 0)
(-0.251993 -0.0684574 0)
(-0.236014 -0.103747 0)
(-0.210701 -0.131495 0)
(-0.173352 -0.142895 0)
(-0.121406 -0.125768 0)
(-0.0568457 -0.070854 0)
(-0.000986972 0.00356653 0)
(0.0047423 0.028241 0)
(-0.00666302 0.0147833 0)
(-0.0287312 0.0441127 0)
(-0.0632934 0.0770987 0)
(-0.104468 0.108927 0)
(-0.14729 0.131217 0)
(-0.184593 0.138205 0)
(-0.212933 0.129511 0)
(-0.232718 0.108752 0)
(-0.245236 0.0798006 0)
(-0.252213 0.0454487 0)
(-0.255332 0.00724007 0)
(-0.255514 -0.0339994 0)
(-0.252534 -0.0770865 0)
(-0.245851 -0.120692 0)
(-0.232655 -0.160829 0)
(-0.20833 -0.18904 0)
(-0.166827 -0.189988 0)
(-0.103453 -0.142884 0)
(-0.0221828 -0.038854 0)
(0.00738208 0.0271018 0)
(-0.00851144 0.0348752 0)
(-0.03518 0.0766439 0)
(-0.0730987 0.114962 0)
(-0.113274 0.147714 0)
(-0.150541 0.166048 0)
(-0.179406 0.165985 0)
(-0.198933 0.149773 0)
(-0.210681 0.122513 0)
(-0.216631 0.0885501 0)
(-0.219263 0.0508724 0)
(-0.220533 0.0109552 0)
(-0.221433 -0.0307595 0)
(-0.222165 -0.0747243 0)
(-0.222838 -0.121297 0)
(-0.221264 -0.169244 0)
(-0.212361 -0.213076 0)
(-0.18804 -0.238605 0)
(-0.139697 -0.218554 0)
(-0.0628529 -0.118948 0)
(0.00584936 0.0142038 0)
(-0.00829379 0.0570097 0)
(-0.0353459 0.11002 0)
(-0.0718451 0.15051 0)
(-0.10709 0.181205 0)
(-0.136729 0.1939 0)
(-0.157137 0.186505 0)
(-0.16905 0.16334 0)
(-0.17459 0.130554 0)
(-0.176164 0.0929072 0)
(-0.176264 0.0534122 0)
(-0.176378 0.0133145 0)
(-0.177179 -0.0273123 0)
(-0.17921 -0.0695813 0)
(-0.183018 -0.114735 0)
(-0.187965 -0.163869 0)
(-0.190435 -0.215838 0)
(-0.182546 -0.26169 0)
(-0.154294 -0.275207 0)
(-0.0994109 -0.205928 0)
(-0.00890851 -0.0146253 0)
(-0.00613667 0.0776083 0)
(-0.0297975 0.140576 0)
(-0.0614373 0.181251 0)
(-0.0899122 0.20837 0)
(-0.111925 0.21496 0)
(-0.125465 0.200633 0)
(-0.132156 0.1714 0)
(-0.13431 0.134236 0)
(-0.134374 0.094119 0)
(-0.134275 0.0537533 0)
(-0.134682 0.0138635 0)
(-0.135775 -0.0258909 0)
(-0.138007 -0.0664884 0)
(-0.14207 -0.109108 0)
(-0.148582 -0.155697 0)
(-0.156245 -0.208613 0)
(-0.1591 -0.265938 0)
(-0.146769 -0.308172 0)
(-0.112269 -0.277242 0)
(-0.0309695 -0.075345 0)
(-0.0027308 0.0936305 0)
(-0.0204234 0.165671 0)
(-0.0451631 0.205647 0)
(-0.0663625 0.228642 0)
(-0.0816344 0.229605 0)
(-0.0901274 0.209617 0)
(-0.0937616 0.175864 0)
(-0.0946753 0.135826 0)
(-0.0949541 0.0944782 0)
(-0.0957506 0.0540346 0)
(-0.0971009 0.0145942 0)
(-0.0989109 -0.0245871 0)
(-0.101347 -0.0642394 0)
(-0.104913 -0.105012 0)
(-0.110759 -0.148495 0)
(-0.119619 -0.198616 0)
(-0.12837 -0.259844 0)
(-0.126541 -0.323506 0)
(-0.107493 -0.334809 0)
(-0.0373546 -0.163462 0)
(0.00121934 0.102779 0)
(-0.00894607 0.183516 0)
(-0.0256521 0.223205 0)
(-0.0396541 0.242829 0)
(-0.0491359 0.239595 0)
(-0.0540104 0.215621 0)
(-0.0559814 0.178864 0)
(-0.0566954 0.137166 0)
(-0.0576572 0.0954098 0)
(-0.0593999 0.0552744 0)
(-0.0616931 0.0163104 0)
(-0.0643936 -0.0224936 0)
(-0.0674924 -0.0617438 0)
(-0.0711674 -0.101639 0)
(-0.076351 -0.142847 0)
(-0.0846128 -0.188991 0)
(-0.0960797 -0.248412 0)
(-0.100662 -0.324374 0)
(-0.0951818 -0.372277 0)
(-0.0309261 -0.242617 0)
(0.00511908 0.103946 0)
(0.00295745 0.193118 0)
(-0.00539153 0.233701 0)
(-0.0125098 0.250863 0)
(-0.0169017 0.244779 0)
(-0.0187895 0.218562 0)
(-0.0194784 0.1805 0)
(-0.0200072 0.138423 0)
(-0.0213059 0.0969648 0)
(-0.023542 0.0574251 0)
(-0.026431 0.0190824 0)
(-0.0299146 -0.0191685 0)
(-0.0340091 -0.0579821 0)
(-0.0386528 -0.0974095 0)
(-0.0443914 -0.137367 0)
(-0.0524513 -0.180239 0)
(-0.0657679 -0.235713 0)
(-0.0742262 -0.318153 0)
(-0.081203 -0.396783 0)
(-0.0229434 -0.307179 0)
(0.00845887 0.0974713 0)
(0.0142227 0.194112 0)
(0.0141057 0.237225 0)
(0.0137113 0.253645 0)
(0.0143342 0.246566 0)
(0.0155314 0.219858 0)
(0.0163912 0.181809 0)
(0.016445 0.140093 0)
(0.0153073 0.0991525 0)
(0.0130302 0.0602251 0)
(0.00986245 0.0226266 0)
(0.00575414 -0.0147525 0)
(0.000562274 -0.0526969 0)
(-0.00556354 -0.0913027 0)
(-0.0130316 -0.130198 0)
(-0.0219788 -0.17038 0)
(-0.0377195 -0.220758 0)
(-0.04873 -0.304514 0)
(-0.0679047 -0.408527 0)
(-0.0144592 -0.360061 0)
(0.0103307 0.0844909 0)
(0.0234222 0.186515 0)
(0.031087 0.233348 0)
(0.0370176 0.25019 0)
(0.0426803 0.243351 0)
(0.047636 0.217566 0)
(0.0510741 0.180803 0)
(0.0527506 0.140396 0)
(0.0526197 0.100633 0)
(0.050891 0.0628227 0)
(0.0477815 0.0264571 0)
(0.0431735 -0.00952059 0)
(0.0368995 -0.0460014 0)
(0.0290835 -0.08314 0)
(0.0189275 -0.120568 0)
(0.00760095 -0.158512 0)
(-0.0118147 -0.204471 0)
(-0.024237 -0.286516 0)
(-0.055843 -0.411033 0)
(-0.00613724 -0.401908 0)
(0.0098794 0.0672379 0)
(0.0290342 0.170705 0)
(0.0443624 0.222256 0)
(0.0569069 0.241355 0)
(0.0682027 0.236428 0)
(0.0778919 0.213066 0)
(0.0851151 0.178773 0)
(0.0895717 0.140431 0)
(0.0913382 0.102269 0)
(0.0907141 0.0658309 0)
(0.0880293 0.0309796 0)
(0.08298 -0.00330211 0)
(0.0754649 -0.0375478 0)
(0.0657717 -0.0723326 0)
(0.0525182 -0.107461 0)
(0.0375829 -0.142811 0)
(0.0131386 -0.184298 0)
(8.51742e-05 -0.263277 0)
(-0.0447951 -0.406732 0)
(0.00276637 -0.436284 0)
(0.00693074 0.0493979 0)
(0.0293693 0.148979 0)
(0.0511215 0.203664 0)
(0.0700035 0.224586 0)
(0.0874829 0.221729 0)
(0.103181 0.201571 0)
(0.115854 0.170976 0)
(0.124822 0.136084 0)
(0.129996 0.100885 0)
(0.131618 0.0670541 0)
(0.129955 0.0348436 0)
(0.125031 0.0034289 0)
(0.116399 -0.0274705 0)
(0.104666 -0.0587123 0)
(0.087569 -0.0903386 0)
(0.068376 -0.122959 0)
(0.0383075 -0.160879 0)
(0.0238664 -0.237176 0)
(-0.0344366 -0.398978 0)
(0.0134762 -0.46444 0)
(0.00238744 0.0346261 0)
(0.0236449 0.123907 0)
(0.0509672 0.179966 0)
(0.0767041 0.202969 0)
(0.101374 0.20266 0)
(0.124262 0.186258 0)
(0.143721 0.160201 0)
(0.158533 0.129768 0)
(0.168281 0.0985738 0)
(0.173174 0.0683055 0)
(0.17315 0.0395608 0)
(0.168922 0.0119342 0)
(0.159084 -0.0149163 0)
(0.145349 -0.0417243 0)
(0.124042 -0.0687697 0)
(0.100497 -0.0975735 0)
(0.0646363 -0.132729 0)
(0.0470142 -0.207471 0)
(-0.0227007 -0.387092 0)
(0.0285347 -0.485564 0)
(-0.00342634 0.0286121 0)
(0.0100747 0.101504 0)
(0.0371191 0.148707 0)
(0.0689897 0.169477 0)
(0.10189 0.1707 0)
(0.133615 0.158409 0)
(0.161619 0.137973 0)
(0.184169 0.113568 0)
(0.200222 0.0882779 0)
(0.21015 0.0636336 0)
(0.213076 0.04038 0)
(0.210823 0.0183998 0)
(0.200557 -0.00268183 0)
(0.185922 -0.0233214 0)
(0.161102 -0.0439896 0)
(0.134479 -0.0677529 0)
(0.0929405 -0.101705 0)
(0.0698824 -0.180023 0)
(-0.00436413 -0.370057 0)
(0.0521629 -0.491644 0)
(-0.0140126 0.0185159 0)
(-0.00751611 0.0881758 0)
(0.019223 0.124198 0)
(0.0564618 0.137328 0)
(0.097622 0.136921 0)
(0.138011 0.127739 0)
(0.17427 0.113082 0)
(0.204122 0.0953017 0)
(0.226021 0.0768272 0)
(0.241118 0.0586761 0)
(0.247154 0.0418013 0)
(0.248071 0.026105 0)
(0.23873 0.0117392 0)
(0.226911 -0.00205363 0)
(0.201907 -0.0160952 0)
(0.177917 -0.0350321 0)
(0.133564 -0.0678104 0)
(0.107845 -0.146006 0)
(0.0374745 -0.326119 0)
(0.0923684 -0.455871 0)
(-0.10602 0.082417 0)
(-0.0777605 0.0689901 0)
(-0.0485678 0.073371 0)
(0.00378347 0.0778923 0)
(0.0573026 0.0782271 0)
(0.110039 0.0739632 0)
(0.157212 0.0666278 0)
(0.199579 0.0572227 0)
(0.231693 0.0475458 0)
(0.259848 0.0378883 0)
(0.275577 0.0292199 0)
(0.290732 0.0212327 0)
(0.291083 0.0144742 0)
(0.295192 0.00809017 0)
(0.278886 0.00112148 0)
(0.271668 -0.010016 0)
(0.232353 -0.0355705 0)
(0.218145 -0.0954202 0)
(0.150208 -0.229723 0)
(0.170672 -0.341455 0)
(0.129969 0.103744 0)
(0.158319 0.0752274 0)
(0.212164 0.0532271 0)
(0.270672 0.0416223 0)
(0.323249 0.0359128 0)
(0.375692 0.0319486 0)
(0.420289 0.0289165 0)
(0.46561 0.025581 0)
(0.498707 0.0229029 0)
(0.533958 0.0197105 0)
(0.553397 0.0175475 0)
(0.579208 0.0146095 0)
(0.585345 0.0131645 0)
(0.603683 0.0103455 0)
(0.595102 0.00938308 0)
(0.603602 0.00499941 0)
(0.567792 8.89116e-05 0)
(0.547613 -0.0183161 0)
(0.43569 -0.0504144 0)
(0.336753 -0.101386 0)
)
;

boundaryField
{
    movingWall
    {
        type            fixedValue;
        value           uniform (1 0 0);
    }
    fixedWalls
    {
        type            noSlip;
    }
    frontAndBack
    {
        type            empty;
    }
}


// ************************************************************************* //
