/*--------------------------------*- C++ -*----------------------------------*\
| =========                 |                                                 |
| \\      /  F ield         | OpenFOAM: The Open Source CFD Toolbox           |
|  \\    /   O peration     | Version:  2212                                  |
|   \\  /    A nd           | Website:  www.openfoam.com                      |
|    \\/     M anipulation  |                                                 |
\*---------------------------------------------------------------------------*/
FoamFile
{
    version     2.0;
    format      ascii;
    arch        "LSB;label=32;scalar=64";
    class       volScalarField;
    location    "5.1";
    object      p;
}
// * * * * * * * * * * * * * * * * * * * * * * * * * * * * * * * * * * * * * //

dimensions      [0 2 -2 0 0 0 0];

internalField   nonuniform List<scalar> 
400
(
-2.81062e-08
-0.000150651
-0.00053344
-0.00106906
-0.00172793
-0.00248695
-0.00317604
-0.00358743
-0.00355488
-0.00292443
-0.00154143
0.000622357
0.00324956
0.00551543
0.00654266
0.00594417
0.00403446
0.00218788
0.00114962
0.00107944
0.00011609
-5.78473e-05
-0.000375629
-0.000761817
-0.00124068
-0.00188288
-0.00269794
-0.00353178
-0.00406576
-0.00392401
-0.0028346
-0.000817213
0.00169384
0.0039665
0.00513743
0.00476728
0.00313908
0.00141469
0.000633414
0.000722568
0.000534738
0.000264487
-7.65552e-05
-0.000557589
-0.00134275
-0.00257131
-0.00420277
-0.00595943
-0.0073718
-0.00791082
-0.00723354
-0.00543586
-0.00287024
-0.000175178
0.00181429
0.0024577
0.00174735
0.000544519
-0.000353238
-0.00035222
0.00114701
0.000737793
0.000190858
-0.000771892
-0.00244088
-0.00491608
-0.00795888
-0.0110692
-0.0136399
-0.0151071
-0.0151372
-0.0137752
-0.0112368
-0.00798025
-0.00470862
-0.00216783
-0.000828084
-0.00066332
-0.00124511
-0.00187549
0.00157272
0.000965998
-2.52518e-05
-0.00191667
-0.00498343
-0.0091355
-0.0138449
-0.0183874
-0.0221045
-0.0245291
-0.0254013
-0.0246012
-0.022254
-0.0186495
-0.0142262
-0.00959106
-0.00553854
-0.00290312
-0.00215122
-0.00397208
0.00127902
0.000435104
-0.00119752
-0.00428664
-0.00896085
-0.014804
-0.0209618
-0.0265721
-0.0310216
-0.0339912
-0.0353514
-0.0350013
-0.0330245
-0.0295686
-0.0247747
-0.0188619
-0.0124302
-0.0068927
-0.00435499
-0.00647296
-6.17899e-05
-0.00115488
-0.00349183
-0.00776251
-0.0138611
-0.0210002
-0.0280784
-0.0342094
-0.0388964
-0.0419763
-0.0434542
-0.04335
-0.0417308
-0.0386655
-0.0341323
-0.0280152
-0.0204326
-0.0126281
-0.00780067
-0.00770164
-0.00245706
-0.00374107
-0.00667761
-0.0118578
-0.0189381
-0.0268285
-0.0342989
-0.0405253
-0.0451553
-0.0481513
-0.0495996
-0.0495946
-0.048215
-0.0455082
-0.0414261
-0.0357373
-0.0281815
-0.0192692
-0.011756
-0.00793688
-0.00553237
-0.00690122
-0.010226
-0.0159437
-0.0235267
-0.0316994
-0.039202
-0.0453074
-0.0497828
-0.0526662
-0.0540764
-0.0541186
-0.0528675
-0.0503811
-0.0466698
-0.0415761
-0.0346853
-0.0258147
-0.0166208
-0.00993793
-0.00871512
-0.0100579
-0.0135436
-0.0194436
-0.0271297
-0.0352666
-0.0426268
-0.0485622
-0.052907
-0.0557232
-0.0571247
-0.0571967
-0.0560026
-0.0536141
-0.0501125
-0.0454858
-0.0394197
-0.0313631
-0.0222065
-0.014257
-0.0114744
-0.0127186
-0.0161525
-0.0219414
-0.0294337
-0.0373484
-0.044518
-0.0503249
-0.0546099
-0.0574166
-0.0588346
-0.0589262
-0.0577421
-0.0553594
-0.0519199
-0.0475543
-0.0421983
-0.0352052
-0.0270646
-0.0190732
-0.0135132
-0.0145729
-0.017783
-0.023197
-0.0302525
-0.0378171
-0.0448029
-0.0505677
-0.0548876
-0.0577533
-0.059216
-0.0593184
-0.0581023
-0.0556459
-0.0521434
-0.047838
-0.0429746
-0.0368798
-0.0298957
-0.0223024
-0.0147994
-0.0155217
-0.0182806
-0.0230967
-0.029523
-0.0366436
-0.0434617
-0.0492713
-0.0537273
-0.0567286
-0.0582731
-0.0583807
-0.0570882
-0.0544962
-0.0508239
-0.0463767
-0.0417555
-0.0361452
-0.0301053
-0.0227921
-0.0154311
-0.0156804
-0.0177153
-0.0216479
-0.0272406
-0.0338226
-0.0404774
-0.0464043
-0.0511001
-0.0543322
-0.0560228
-0.0561644
-0.0547707
-0.0519731
-0.0480339
-0.0433446
-0.0385644
-0.0330282
-0.0280099
-0.0202075
-0.0155407
-0.0152637
-0.0162907
-0.0190131
-0.0235369
-0.0294651
-0.0359434
-0.0420479
-0.0470858
-0.0506564
-0.0525755
-0.0527814
-0.0513158
-0.048268
-0.0439723
-0.0388755
-0.0336748
-0.0280163
-0.0241901
-0.0143641
-0.0152478
-0.0145239
-0.0142307
-0.0153806
-0.0186094
-0.0237753
-0.0300586
-0.0363858
-0.0418572
-0.0458809
-0.0481481
-0.0485276
-0.0470423
-0.0437625
-0.0390605
-0.0334079
-0.027601
-0.0216386
-0.0180864
-0.00387319
-0.0146396
-0.0136006
-0.0116948
-0.0110676
-0.0129225
-0.0173144
-0.0234204
-0.0300037
-0.0359763
-0.0405553
-0.043301
-0.0439856
-0.0426011
-0.0391798
-0.0340592
-0.0276427
-0.0207089
-0.0133575
-0.0068982
0.0159537
-0.0145709
-0.0126491
-0.00865402
-0.00625148
-0.00692025
-0.0107293
-0.0167587
-0.0236303
-0.0301396
-0.0353407
-0.0386827
-0.0398148
-0.0386829
-0.0353014
-0.0298176
-0.0222787
-0.0129561
-0.000834341
0.01652
0.0569185
-0.0117926
-0.0118339
-0.00575141
-0.00181833
-0.00180694
-0.00542474
-0.0115556
-0.0187462
-0.0257574
-0.0315288
-0.0354791
-0.0371754
-0.0365192
-0.0332348
-0.0271727
-0.0175722
-0.00326244
0.0203113
0.0605065
0.129661
-0.0295106
-0.0106401
-0.000645695
0.00302544
0.0023928
-0.00159182
-0.00799595
-0.0155014
-0.0228745
-0.0290305
-0.0333622
-0.0354129
-0.0350444
-0.0318414
-0.0251757
-0.012884
0.00931732
0.051007
0.122702
0.225933
)
;

boundaryField
{
    movingWall
    {
        type            zeroGradient;
    }
    fixedWalls
    {
        type            zeroGradient;
    }
    frontAndBack
    {
        type            empty;
    }
}


// ************************************************************************* //
