/*--------------------------------*- C++ -*----------------------------------*\
| =========                 |                                                 |
| \\      /  F ield         | OpenFOAM: The Open Source CFD Toolbox           |
|  \\    /   O peration     | Version:  2212                                  |
|   \\  /    A nd           | Website:  www.openfoam.com                      |
|    \\/     M anipulation  |                                                 |
\*---------------------------------------------------------------------------*/
FoamFile
{
    version     2.0;
    format      ascii;
    arch        "LSB;label=32;scalar=64";
    class       surfaceScalarField;
    location    "5.1";
    object      phi;
}
// * * * * * * * * * * * * * * * * * * * * * * * * * * * * * * * * * * * * * //

dimensions      [0 3 -1 0 0 0 0];

oriented        oriented;

internalField   nonuniform List<scalar> 
760
(
1.55335e-07
-1.55333e-07
2.91979e-07
-1.36643e-07
3.07936e-07
-1.59576e-08
1.81658e-07
1.26278e-07
-1.21812e-07
3.0347e-07
-6.66109e-07
5.44297e-07
-1.48316e-06
8.17056e-07
-2.48611e-06
1.00294e-06
-3.4736e-06
9.87488e-07
-4.21299e-06
7.39397e-07
-4.53742e-06
3.24428e-07
-4.34953e-06
-1.87886e-07
-3.59302e-06
-7.56515e-07
-2.38184e-06
-1.21118e-06
-9.45836e-07
-1.43601e-06
3.40459e-07
-1.28629e-06
1.08376e-06
-7.43298e-07
1.02958e-06
5.41743e-08
4.5981e-07
5.69772e-07
4.5981e-07
1.23718e-07
-2.79051e-07
7.2195e-08
-8.51202e-08
-2.99247e-07
3.55484e-07
-1.07946e-06
9.06488e-07
-2.3132e-06
1.53722e-06
-3.92025e-06
2.15135e-06
-5.6509e-06
2.5477e-06
-7.19267e-06
2.54471e-06
-8.32123e-06
2.11605e-06
-8.92675e-06
1.34491e-06
-8.96217e-06
3.5985e-07
-8.40484e-06
-7.45218e-07
-7.28598e-06
-1.87537e-06
-5.63863e-06
-2.85852e-06
-3.60653e-06
-3.46811e-06
-1.494e-06
-3.39882e-06
1.73293e-07
-2.41059e-06
8.54942e-07
-6.27474e-07
5.24148e-07
9.00566e-07
9.83957e-07
-1.28621e-07
-1.5043e-07
-6.34853e-07
4.21111e-07
-1.62383e-06
1.34446e-06
-3.13626e-06
2.41892e-06
-5.0469e-06
3.44785e-06
-7.0575e-06
4.16194e-06
-8.85351e-06
4.34372e-06
-1.0255e-05
3.94617e-06
-1.12101e-05
3.07115e-06
-1.17111e-05
1.84596e-06
-1.17065e-05
3.55219e-07
-1.12496e-05
-1.20207e-06
-1.03202e-05
-2.80481e-06
-8.86388e-06
-4.31485e-06
-6.86063e-06
-5.47135e-06
-4.39935e-06
-5.86011e-06
-1.87893e-06
-4.93101e-06
-8.83899e-08
-2.41802e-06
2.93894e-07
5.18283e-07
1.27785e-06
-5.00098e-07
3.49669e-07
-1.55758e-06
1.47859e-06
-3.11291e-06
2.89979e-06
-5.06909e-06
4.3751e-06
-7.16705e-06
5.54582e-06
-9.10001e-06
6.0949e-06
-1.0666e-05
5.90972e-06
-1.18223e-05
5.10249e-06
-1.2597e-05
3.8458e-06
-1.30248e-05
2.27374e-06
-1.30907e-05
4.21151e-07
-1.2853e-05
-1.4398e-06
-1.22732e-05
-3.38457e-06
-1.12495e-05
-5.33855e-06
-9.65086e-06
-7.07e-06
-7.35254e-06
-8.15842e-06
-4.39287e-06
-7.89067e-06
-1.37776e-06
-5.43313e-06
1.19909e-07
-9.7939e-07
1.39776e-06
-8.59852e-07
1.20952e-06
-2.35553e-06
2.97427e-06
-4.221e-06
4.76526e-06
-6.26219e-06
6.41629e-06
-8.19904e-06
7.48266e-06
-9.80929e-06
7.70515e-06
-1.1016e-05
7.11648e-06
-1.18457e-05
5.93211e-06
-1.236e-05
4.36018e-06
-1.26321e-05
2.54578e-06
-1.27526e-05
5.41669e-07
-1.27087e-05
-1.48372e-06
-1.24911e-05
-3.60211e-06
-1.20207e-05
-5.809e-06
-1.11108e-05
-7.97988e-06
-9.4735e-06
-9.79574e-06
-6.80973e-06
-1.05544e-05
-3.21824e-06
-9.02462e-06
-2.6177e-07
-3.93586e-06
1.13599e-06
-1.08344e-06
2.29296e-06
-2.77564e-06
4.66647e-06
-4.66338e-06
6.65301e-06
-6.51562e-06
8.26852e-06
-8.10865e-06
9.0757e-06
-9.31143e-06
8.90793e-06
-1.01195e-05
7.92457e-06
-1.05979e-05
6.41048e-06
-1.08369e-05
4.59924e-06
-1.09369e-05
2.64571e-06
-1.10193e-05
6.24087e-07
-1.10715e-05
-1.43153e-06
-1.11091e-05
-3.56448e-06
-1.11027e-05
-5.81538e-06
-1.08983e-05
-8.18436e-06
-1.01682e-05
-1.05258e-05
-8.4185e-06
-1.23041e-05
-5.23435e-06
-1.22088e-05
-1.15712e-06
-8.01309e-06
-2.11297e-08
-1.10669e-06
3.39964e-06
-2.74906e-06
6.30884e-06
-4.44133e-06
8.34527e-06
-5.97215e-06
9.79934e-06
-7.18168e-06
1.02852e-05
-8.00725e-06
9.7335e-06
-8.48613e-06
8.40345e-06
-8.7052e-06
6.62954e-06
-8.76825e-06
4.6623e-06
-8.77282e-06
2.65027e-06
-8.802e-06
6.53268e-07
-8.87466e-06
-1.35886e-06
-9.01059e-06
-3.42856e-06
-9.22095e-06
-5.60502e-06
-9.44855e-06
-7.95676e-06
-9.46128e-06
-1.05131e-05
-8.7398e-06
-1.30256e-05
-6.52717e-06
-1.44214e-05
-2.41941e-06
-1.21208e-05
-2.44054e-06
-9.32174e-07
4.33182e-06
-2.33916e-06
7.71583e-06
-3.72211e-06
9.72822e-06
-4.89762e-06
1.09749e-05
-5.7647e-06
1.11523e-05
-6.30611e-06
1.02749e-05
-6.5786e-06
8.67593e-06
-6.67313e-06
6.72408e-06
-6.68617e-06
4.67534e-06
-6.69132e-06
2.65542e-06
-6.72495e-06
6.869e-07
-6.80436e-06
-1.27945e-06
-6.9507e-06
-3.28222e-06
-7.19444e-06
-5.36128e-06
-7.55224e-06
-7.59896e-06
-7.93228e-06
-1.01331e-05
-7.92377e-06
-1.30341e-05
-6.70898e-06
-1.56362e-05
-3.58076e-06
-1.52491e-05
-6.02131e-06
-6.22516e-07
4.95433e-06
-1.68176e-06
8.77507e-06
-2.71198e-06
1.07584e-05
-3.54846e-06
1.18113e-05
-4.1355e-06
1.17393e-05
-4.48291e-06
1.06223e-05
-4.64931e-06
8.84234e-06
-4.71318e-06
6.78795e-06
-4.7472e-06
4.70936e-06
-4.79543e-06
2.70365e-06
-4.86825e-06
7.59723e-07
-4.9723e-06
-1.1754e-06
-5.11761e-06
-3.13691e-06
-5.33294e-06
-5.14595e-06
-5.67325e-06
-7.25865e-06
-6.15142e-06
-9.65488e-06
-6.54815e-06
-1.26374e-05
-6.12179e-06
-1.60626e-05
-3.91933e-06
-1.74515e-05
-9.94063e-06
-2.31345e-07
5.18568e-06
-8.90008e-07
9.43374e-06
-1.55974e-06
1.14282e-05
-2.08761e-06
1.23392e-05
-2.44572e-06
1.20975e-05
-2.65816e-06
1.08348e-05
-2.77305e-06
8.95722e-06
-2.84373e-06
6.85863e-06
-2.91515e-06
4.78078e-06
-3.00957e-06
2.79807e-06
-3.12984e-06
8.79995e-07
-3.27574e-06
-1.0295e-06
-3.44759e-06
-2.96506e-06
-3.65779e-06
-4.93575e-06
-3.9574e-06
-6.95904e-06
-4.42835e-06
-9.18393e-06
-5.01698e-06
-1.20487e-05
-5.12002e-06
-1.59595e-05
-3.55594e-06
-1.90156e-05
-1.34966e-05
1.63576e-07
5.0221e-06
-6.91396e-08
9.66645e-06
-4.01083e-07
1.17601e-05
-6.51148e-07
1.25893e-05
-8.05093e-07
1.22514e-05
-8.93966e-07
1.09236e-05
-9.57236e-07
9.0205e-06
-1.02689e-06
6.92828e-06
-1.11961e-06
4.8735e-06
-1.24317e-06
2.92163e-06
-1.40002e-06
1.03684e-06
-1.59233e-06
-8.37188e-07
-1.81883e-06
-2.73856e-06
-2.07763e-06
-4.67696e-06
-2.39659e-06
-6.64008e-06
-2.86817e-06
-8.71234e-06
-3.55615e-06
-1.13608e-05
-4.02358e-06
-1.54921e-05
-3.02461e-06
-2.00146e-05
-1.65212e-05
5.00261e-07
4.52184e-06
6.98011e-07
9.4687e-06
7.41312e-07
1.17168e-05
7.7714e-07
1.25534e-05
8.2236e-07
1.22062e-05
8.51497e-07
1.08945e-05
8.44698e-07
9.02729e-06
7.93674e-07
6.9793e-06
6.9964e-07
4.96753e-06
5.64492e-07
3.05678e-06
3.83336e-07
1.218e-06
1.49959e-07
-6.03811e-07
-1.37486e-07
-2.45111e-06
-4.85689e-07
-4.32876e-06
-8.99108e-07
-6.22666e-06
-1.4226e-06
-8.18885e-06
-2.20345e-06
-1.05799e-05
-2.95459e-06
-1.47409e-05
-2.4613e-06
-2.05079e-05
-1.89825e-05
7.55556e-07
3.76628e-06
1.35284e-06
8.87142e-06
1.74557e-06
1.13241e-05
2.07518e-06
1.22238e-05
2.34854e-06
1.19328e-05
2.53521e-06
1.07078e-05
2.6268e-06
8.93571e-06
2.63402e-06
6.97208e-06
2.57121e-06
5.03035e-06
2.44549e-06
3.1825e-06
2.24978e-06
1.4137e-06
1.9701e-06
-3.24131e-07
1.60647e-06
-2.08749e-06
1.15387e-06
-3.87615e-06
6.07555e-07
-5.68034e-06
-8.45864e-08
-7.49671e-06
-9.5854e-07
-9.70596e-06
-1.92174e-06
-1.37777e-05
-1.92645e-06
-2.05032e-05
-2.09089e-05
8.70073e-07
2.89621e-06
1.809e-06
7.93249e-06
2.55062e-06
1.05825e-05
3.19172e-06
1.15827e-05
3.7396e-06
1.13849e-05
4.15078e-06
1.02966e-05
4.40917e-06
8.67732e-06
4.52875e-06
6.8525e-06
4.53281e-06
5.02628e-06
4.43696e-06
3.27835e-06
4.2395e-06
1.61116e-06
3.90948e-06
5.89094e-09
3.46511e-06
-1.64312e-06
2.88182e-06
-3.29287e-06
2.16017e-06
-4.95869e-06
1.31815e-06
-6.65469e-06
2.64464e-07
-8.65227e-06
-9.6115e-07
-1.25521e-05
-1.42864e-06
-2.00357e-05
-2.23376e-05
8.05949e-07
2.09026e-06
1.95311e-06
6.78533e-06
2.99569e-06
9.53988e-06
3.96929e-06
1.06091e-05
4.84672e-06
1.05075e-05
5.56176e-06
9.5816e-06
6.0751e-06
8.16398e-06
6.38972e-06
6.53788e-06
6.52684e-06
4.88916e-06
6.50501e-06
3.30018e-06
6.32318e-06
1.79299e-06
5.97785e-06
3.51224e-07
5.43783e-06
-1.1031e-06
4.70915e-06
-2.56419e-06
3.7838e-06
-4.03333e-06
2.69031e-06
-5.5612e-06
1.38755e-06
-7.34951e-06
-1.56244e-07
-1.10083e-05
-9.14466e-07
-1.92774e-05
-2.3252e-05
5.77298e-07
1.51296e-06
1.75884e-06
5.60379e-06
3.09738e-06
8.20134e-06
4.4488e-06
9.25772e-06
5.71566e-06
9.24066e-06
6.79929e-06
8.49796e-06
7.63418e-06
7.32909e-06
8.20766e-06
5.9644e-06
8.53238e-06
4.56445e-06
8.62556e-06
3.207e-06
8.49422e-06
1.92433e-06
8.13594e-06
7.09508e-07
7.50696e-06
-4.74127e-07
6.62424e-06
-1.68147e-06
5.47491e-06
-2.884e-06
4.09983e-06
-4.18613e-06
2.57032e-06
-5.82e-06
9.55881e-07
-9.39389e-06
-1.44957e-07
-1.81766e-05
-2.3397e-05
1.51979e-07
1.36099e-06
1.0396e-06
4.71617e-06
2.51711e-06
6.72383e-06
4.23965e-06
7.53518e-06
5.96235e-06
7.51796e-06
7.49766e-06
6.96265e-06
8.7429e-06
6.08386e-06
9.66833e-06
5.03896e-06
1.02692e-05
3.96356e-06
1.05575e-05
2.91872e-06
1.05393e-05
1.9425e-06
1.02205e-05
1.02828e-06
9.55661e-06
1.89817e-07
8.56734e-06
-6.92211e-07
7.24417e-06
-1.56083e-06
5.63833e-06
-2.58028e-06
3.90965e-06
-4.09132e-06
2.23941e-06
-7.72365e-06
6.52629e-07
-1.65898e-05
-2.27444e-05
-5.17271e-07
1.87826e-06
2.007e-07
3.9982e-06
1.75685e-06
5.16768e-06
3.82124e-06
5.47078e-06
5.97773e-06
5.36148e-06
7.94005e-06
5.00033e-06
9.57166e-06
4.45225e-06
1.08312e-05
3.77938e-06
1.17014e-05
3.09342e-06
1.21987e-05
2.42138e-06
1.23272e-05
1.81399e-06
1.2107e-05
1.24852e-06
1.15611e-05
7.35764e-07
1.06615e-05
2.07301e-07
9.41278e-06
-3.12073e-07
7.88644e-06
-1.05394e-06
6.26824e-06
-2.47312e-06
4.45703e-06
-5.91245e-06
2.05573e-06
-1.41885e-05
-2.06886e-05
-4.17939e-06
6.05765e-06
-3.64234e-06
3.46115e-06
-1.24704e-06
2.77237e-06
1.552e-06
2.67175e-06
4.29229e-06
2.62119e-06
6.82762e-06
2.465e-06
9.04498e-06
2.23488e-06
1.08844e-05
1.94001e-06
1.23276e-05
1.6502e-06
1.34018e-05
1.34714e-06
1.41242e-05
1.09156e-06
1.45395e-05
8.33227e-07
1.46358e-05
6.3954e-07
1.44225e-05
4.20529e-07
1.38934e-05
2.17023e-07
1.3064e-05
-2.24479e-07
1.19231e-05
-1.33226e-06
1.01125e-05
-4.1018e-06
5.63789e-06
-9.71393e-06
-1.50508e-05
6.05765e-06
9.5188e-06
1.22912e-05
1.49629e-05
1.75841e-05
2.00491e-05
2.2284e-05
2.4224e-05
2.58742e-05
2.72213e-05
2.83129e-05
2.91461e-05
2.97857e-05
3.02062e-05
3.04232e-05
3.01987e-05
2.88665e-05
2.47647e-05
1.50508e-05
)
;

boundaryField
{
    movingWall
    {
        type            calculated;
        value           uniform 0;
    }
    fixedWalls
    {
        type            calculated;
        value           uniform 0;
    }
    frontAndBack
    {
        type            empty;
        value           nonuniform List<scalar> 0();
    }
}


// ************************************************************************* //
