/*--------------------------------*- C++ -*----------------------------------*\
| =========                 |                                                 |
| \\      /  F ield         | OpenFOAM: The Open Source CFD Toolbox           |
|  \\    /   O peration     | Version:  2212                                  |
|   \\  /    A nd           | Website:  www.openfoam.com                      |
|    \\/     M anipulation  |                                                 |
\*---------------------------------------------------------------------------*/
FoamFile
{
    version     2.0;
    format      ascii;
    arch        "LSB;label=32;scalar=64";
    class       volVectorField;
    location    "11.7";
    object      U;
}
// * * * * * * * * * * * * * * * * * * * * * * * * * * * * * * * * * * * * * //

dimensions      [0 1 -1 0 0 0 0];

internalField   nonuniform List<vector> 
400
(
(0.00168185 -0.00168374 0)
(0.00483882 -0.00189225 0)
(0.00659131 -0.00120074 0)
(0.00567499 -0.000575138 0)
(0.00157236 0.000183971 0)
(-0.0068291 0.00173939 0)
(-0.0206084 0.00478644 0)
(-0.0395418 0.00873627 0)
(-0.0608124 0.0112929 0)
(-0.0791393 0.0105126 0)
(-0.0898145 0.0067745 0)
(-0.0904647 0.00166884 0)
(-0.0802269 -0.00361673 0)
(-0.059994 -0.00827523 0)
(-0.0335204 -0.0108474 0)
(-0.00529175 -0.00979538 0)
(0.0167249 -0.00477293 0)
(0.0244715 0.00277708 0)
(0.0161791 0.00647246 0)
(0.0043166 0.00471724 0)
(0.00172058 -0.00506526 0)
(0.00316289 -0.00403257 0)
(-0.000416799 0.000587719 0)
(-0.0113297 0.00644176 0)
(-0.0314263 0.0140504 0)
(-0.061151 0.0237746 0)
(-0.0968489 0.0330628 0)
(-0.131463 0.0370938 0)
(-0.158977 0.0335183 0)
(-0.176109 0.0234017 0)
(-0.181455 0.00910908 0)
(-0.175084 -0.00699074 0)
(-0.157565 -0.0231753 0)
(-0.129653 -0.0369155 0)
(-0.0936156 -0.044567 0)
(-0.0521943 -0.0418396 0)
(-0.0113993 -0.0263343 0)
(0.0168907 -0.00127846 0)
(0.0178728 0.0162246 0)
(0.00554233 0.0148204 0)
(-0.000239506 -0.00578074 0)
(-0.00538103 0.000801482 0)
(-0.0196096 0.0142996 0)
(-0.0445051 0.031237 0)
(-0.0803438 0.0494476 0)
(-0.122209 0.0643234 0)
(-0.162357 0.0705495 0)
(-0.195281 0.0660312 0)
(-0.218874 0.0521926 0)
(-0.232543 0.0315343 0)
(-0.236299 0.00641575 0)
(-0.230813 -0.0211151 0)
(-0.216398 -0.0488757 0)
(-0.192551 -0.0732303 0)
(-0.159011 -0.08903 0)
(-0.115745 -0.0892323 0)
(-0.0645643 -0.0670301 0)
(-0.0138209 -0.0226639 0)
(0.00948186 0.0179197 0)
(0.00415547 0.0235809 0)
(-0.00347201 0.000452854 0)
(-0.0175154 0.0172406 0)
(-0.0435181 0.0415025 0)
(-0.0796865 0.0681984 0)
(-0.122966 0.091166 0)
(-0.165863 0.103854 0)
(-0.201936 0.102909 0)
(-0.229262 0.0896757 0)
(-0.248102 0.0673286 0)
(-0.259057 0.0385804 0)
(-0.262965 0.00531642 0)
(-0.260632 -0.0311199 0)
(-0.251998 -0.0684596 0)
(-0.236018 -0.103749 0)
(-0.210704 -0.131497 0)
(-0.173355 -0.142897 0)
(-0.121407 -0.125769 0)
(-0.056846 -0.0708537 0)
(-0.000986681 0.00356767 0)
(0.00474231 0.0282417 0)
(-0.00666312 0.014783 0)
(-0.0287318 0.0441131 0)
(-0.0632947 0.0771001 0)
(-0.10447 0.108929 0)
(-0.147294 0.13122 0)
(-0.184597 0.138208 0)
(-0.212938 0.129514 0)
(-0.232724 0.108754 0)
(-0.245243 0.079802 0)
(-0.25222 0.0454491 0)
(-0.255339 0.00723934 0)
(-0.25552 -0.0340013 0)
(-0.25254 -0.0770892 0)
(-0.245857 -0.120695 0)
(-0.232659 -0.160832 0)
(-0.208334 -0.189043 0)
(-0.16683 -0.18999 0)
(-0.103454 -0.142885 0)
(-0.0221828 -0.0388532 0)
(0.00738227 0.0271026 0)
(-0.00851167 0.0348754 0)
(-0.0351809 0.076645 0)
(-0.0731006 0.114964 0)
(-0.113277 0.147718 0)
(-0.150545 0.166052 0)
(-0.179411 0.165988 0)
(-0.198939 0.149777 0)
(-0.210687 0.122516 0)
(-0.216639 0.088552 0)
(-0.219271 0.0508731 0)
(-0.220541 0.0109545 0)
(-0.221441 -0.0307616 0)
(-0.222172 -0.0747276 0)
(-0.222844 -0.121301 0)
(-0.22127 -0.169248 0)
(-0.212365 -0.213081 0)
(-0.188043 -0.238608 0)
(-0.1397 -0.218556 0)
(-0.062854 -0.118948 0)
(0.00584972 0.0142045 0)
(-0.00829408 0.0570105 0)
(-0.035347 0.110022 0)
(-0.0718473 0.150514 0)
(-0.107093 0.18121 0)
(-0.136733 0.193905 0)
(-0.157142 0.186509 0)
(-0.169056 0.163345 0)
(-0.174596 0.130558 0)
(-0.176172 0.0929098 0)
(-0.176272 0.0534134 0)
(-0.176387 0.0133139 0)
(-0.177187 -0.0273147 0)
(-0.179219 -0.0695853 0)
(-0.183026 -0.11474 0)
(-0.187971 -0.163875 0)
(-0.19044 -0.215844 0)
(-0.182549 -0.261694 0)
(-0.154297 -0.275211 0)
(-0.0994129 -0.20593 0)
(-0.00890856 -0.0146248 0)
(-0.00613694 0.0776099 0)
(-0.0297986 0.140579 0)
(-0.0614394 0.181255 0)
(-0.0899153 0.208375 0)
(-0.111929 0.214966 0)
(-0.125469 0.200639 0)
(-0.132162 0.171405 0)
(-0.134317 0.13424 0)
(-0.134381 0.0941225 0)
(-0.134283 0.0537552 0)
(-0.134691 0.0138632 0)
(-0.135784 -0.0258936 0)
(-0.138016 -0.0664934 0)
(-0.142078 -0.109114 0)
(-0.148588 -0.155704 0)
(-0.15625 -0.208619 0)
(-0.159103 -0.265943 0)
(-0.146772 -0.308177 0)
(-0.112271 -0.277246 0)
(-0.0309702 -0.0753458 0)
(-0.00273099 0.0936328 0)
(-0.0204243 0.165675 0)
(-0.0451649 0.205652 0)
(-0.0663651 0.228648 0)
(-0.0816377 0.229611 0)
(-0.0901314 0.209624 0)
(-0.0937664 0.17587 0)
(-0.0946811 0.135831 0)
(-0.0949609 0.0944827 0)
(-0.0957581 0.0540372 0)
(-0.097109 0.0145942 0)
(-0.0989191 -0.0245899 0)
(-0.101355 -0.0642449 0)
(-0.104921 -0.10502 0)
(-0.110765 -0.148504 0)
(-0.119623 -0.198624 0)
(-0.128374 -0.259851 0)
(-0.126543 -0.323511 0)
(-0.107495 -0.334814 0)
(-0.0373553 -0.163465 0)
(0.00121931 0.102782 0)
(-0.0089466 0.183521 0)
(-0.0256532 0.22321 0)
(-0.0396559 0.242836 0)
(-0.0491382 0.239602 0)
(-0.0540132 0.215628 0)
(-0.0559848 0.178871 0)
(-0.0566996 0.137172 0)
(-0.0576621 0.0954151 0)
(-0.0594054 0.0552777 0)
(-0.061699 0.0163109 0)
(-0.0643996 -0.0224963 0)
(-0.0674983 -0.0617496 0)
(-0.071173 -0.101647 0)
(-0.0763559 -0.142857 0)
(-0.0846166 -0.189001 0)
(-0.0960823 -0.24842 0)
(-0.100663 -0.32438 0)
(-0.0951828 -0.372282 0)
(-0.0309265 -0.242621 0)
(0.00511924 0.103949 0)
(0.00295741 0.193123 0)
(-0.00539193 0.233708 0)
(-0.0125106 0.250871 0)
(-0.0169027 0.244787 0)
(-0.0187908 0.21857 0)
(-0.01948 0.180507 0)
(-0.0200093 0.13843 0)
(-0.0213083 0.0969707 0)
(-0.0235447 0.0574288 0)
(-0.0264339 0.0190833 0)
(-0.0299176 -0.0191709 0)
(-0.0340122 -0.0579877 0)
(-0.038656 -0.0974179 0)
(-0.0443944 -0.137378 0)
(-0.0524537 -0.18025 0)
(-0.0657696 -0.235722 0)
(-0.0742268 -0.31816 0)
(-0.0812035 -0.396789 0)
(-0.0229436 -0.307183 0)
(0.00845925 0.0974742 0)
(0.0142232 0.194117 0)
(0.0141062 0.237231 0)
(0.0137117 0.253652 0)
(0.0143346 0.246574 0)
(0.0155318 0.219866 0)
(0.0163915 0.181816 0)
(0.0164453 0.140101 0)
(0.0153076 0.0991586 0)
(0.0130306 0.0602291 0)
(0.00986287 0.0226277 0)
(0.00575443 -0.0147545 0)
(0.000562283 -0.0527021 0)
(-0.00556384 -0.0913107 0)
(-0.0130323 -0.130208 0)
(-0.0219795 -0.170391 0)
(-0.03772 -0.220768 0)
(-0.0487297 -0.304521 0)
(-0.0679046 -0.408532 0)
(-0.0144592 -0.360065 0)
(0.0103313 0.0844932 0)
(0.0234232 0.18652 0)
(0.0310883 0.233355 0)
(0.0370191 0.250197 0)
(0.0426821 0.243359 0)
(0.0476381 0.217574 0)
(0.0510765 0.180811 0)
(0.0527533 0.140403 0)
(0.0526228 0.100639 0)
(0.0508943 0.0628267 0)
(0.0477851 0.0264584 0)
(0.0431769 -0.00952228 0)
(0.0369026 -0.0460061 0)
(0.0290861 -0.0831474 0)
(0.0189294 -0.120578 0)
(0.00760221 -0.158523 0)
(-0.0118139 -0.204481 0)
(-0.0242359 -0.286523 0)
(-0.0558425 -0.411038 0)
(-0.00613706 -0.401912 0)
(0.00988002 0.0672393 0)
(0.0290357 0.170709 0)
(0.0443644 0.222262 0)
(0.0569095 0.241362 0)
(0.0682058 0.236436 0)
(0.0778955 0.213074 0)
(0.0851193 0.17878 0)
(0.0895765 0.140438 0)
(0.0913436 0.102275 0)
(0.0907201 0.0658347 0)
(0.0880356 0.0309809 0)
(0.0829863 -0.00330347 0)
(0.0754708 -0.037552 0)
(0.0657769 -0.0723392 0)
(0.0525224 -0.107469 0)
(0.0375861 -0.142821 0)
(0.0131407 -0.184307 0)
(8.70496e-05 -0.263284 0)
(-0.0447942 -0.406737 0)
(0.00276669 -0.436288 0)
(0.0069312 0.0493983 0)
(0.029371 0.148982 0)
(0.0511241 0.203669 0)
(0.0700068 0.224592 0)
(0.087487 0.221736 0)
(0.103186 0.201578 0)
(0.11586 0.170982 0)
(0.124828 0.13609 0)
(0.130003 0.100889 0)
(0.131626 0.0670573 0)
(0.129964 0.0348448 0)
(0.12504 0.00342776 0)
(0.116408 -0.027474 0)
(0.104673 -0.0587179 0)
(0.0875752 -0.090346 0)
(0.0683808 -0.122968 0)
(0.0383109 -0.160888 0)
(0.0238687 -0.237182 0)
(-0.0344353 -0.398982 0)
(0.0134767 -0.464443 0)
(0.00238762 0.0346256 0)
(0.0236463 0.123909 0)
(0.0509698 0.17997 0)
(0.0767079 0.202974 0)
(0.101379 0.202665 0)
(0.124268 0.186264 0)
(0.143727 0.160207 0)
(0.158541 0.129773 0)
(0.16829 0.0985779 0)
(0.173184 0.0683082 0)
(0.17316 0.0395619 0)
(0.168932 0.0119334 0)
(0.159094 -0.014919 0)
(0.145358 -0.0417289 0)
(0.124049 -0.0687757 0)
(0.100503 -0.0975805 0)
(0.0646406 -0.132736 0)
(0.0470167 -0.207476 0)
(-0.0226993 -0.387095 0)
(0.0285354 -0.485566 0)
(-0.00342645 0.028611 0)
(0.0100757 0.101504 0)
(0.0371214 0.14871 0)
(0.0689933 0.169481 0)
(0.101895 0.170704 0)
(0.133621 0.158414 0)
(0.161626 0.137977 0)
(0.184178 0.113572 0)
(0.200232 0.0882811 0)
(0.21016 0.0636356 0)
(0.213087 0.0403807 0)
(0.210834 0.0183991 0)
(0.200567 -0.00268408 0)
(0.185932 -0.023325 0)
(0.161111 -0.0439943 0)
(0.134486 -0.0677582 0)
(0.0929452 -0.10171 0)
(0.0698847 -0.180026 0)
(-0.00436283 -0.370059 0)
(0.0521636 -0.491644 0)
(-0.0140133 0.0185149 0)
(-0.00751623 0.0881755 0)
(0.0192244 0.1242 0)
(0.0564645 0.13733 0)
(0.0976262 0.136924 0)
(0.138017 0.127742 0)
(0.174278 0.113085 0)
(0.20413 0.0953045 0)
(0.226031 0.0768294 0)
(0.241129 0.0586776 0)
(0.247165 0.0418018 0)
(0.248082 0.0261046 0)
(0.23874 0.0117377 0)
(0.226921 -0.00205594 0)
(0.201915 -0.0160982 0)
(0.177924 -0.0350354 0)
(0.133568 -0.0678136 0)
(0.107847 -0.146008 0)
(0.0374755 -0.32612 0)
(0.0923688 -0.455871 0)
(-0.106021 0.0824163 0)
(-0.077761 0.0689894 0)
(-0.0485677 0.0733714 0)
(0.00378458 0.0778934 0)
(0.0573051 0.0782286 0)
(0.110043 0.073965 0)
(0.157217 0.0666295 0)
(0.199586 0.0572241 0)
(0.231701 0.0475469 0)
(0.259857 0.037889 0)
(0.275585 0.02922 0)
(0.290741 0.0212323 0)
(0.291091 0.0144733 0)
(0.2952 0.00808896 0)
(0.278892 0.00111993 0)
(0.271673 -0.0100175 0)
(0.232357 -0.0355718 0)
(0.218147 -0.0954207 0)
(0.150209 -0.229723 0)
(0.170672 -0.341455 0)
(0.129968 0.103744 0)
(0.158319 0.0752269 0)
(0.212163 0.0532265 0)
(0.270671 0.0416219 0)
(0.323248 0.0359125 0)
(0.375692 0.0319484 0)
(0.42029 0.0289164 0)
(0.465612 0.025581 0)
(0.49871 0.0229029 0)
(0.533962 0.0197104 0)
(0.553401 0.0175473 0)
(0.579211 0.0146093 0)
(0.585348 0.0131642 0)
(0.603686 0.0103451 0)
(0.595104 0.00938269 0)
(0.603603 0.00499906 0)
(0.567792 8.86381e-05 0)
(0.547612 -0.0183162 0)
(0.435689 -0.0504144 0)
(0.336753 -0.101385 0)
)
;

boundaryField
{
    movingWall
    {
        type            fixedValue;
        value           uniform (1 0 0);
    }
    fixedWalls
    {
        type            noSlip;
    }
    frontAndBack
    {
        type            empty;
    }
}


// ************************************************************************* //
