/*--------------------------------*- C++ -*----------------------------------*\
| =========                 |                                                 |
| \\      /  F ield         | OpenFOAM: The Open Source CFD Toolbox           |
|  \\    /   O peration     | Version:  2212                                  |
|   \\  /    A nd           | Website:  www.openfoam.com                      |
|    \\/     M anipulation  |                                                 |
\*---------------------------------------------------------------------------*/
FoamFile
{
    version     2.0;
    format      ascii;
    arch        "LSB;label=32;scalar=64";
    class       surfaceScalarField;
    location    "0.4";
    object      phi;
}
// * * * * * * * * * * * * * * * * * * * * * * * * * * * * * * * * * * * * * //

dimensions      [0 3 -1 0 0 0 0];

oriented        oriented;

internalField   nonuniform List<scalar> 
760
(
-2.61322e-08
2.6132e-08
-8.65455e-08
6.04134e-08
-1.60306e-07
7.37609e-08
-2.37446e-07
7.71394e-08
-3.14845e-07
7.73991e-08
-3.91395e-07
7.65505e-08
-4.65991e-07
7.45955e-08
-5.36873e-07
7.08825e-08
-6.01379e-07
6.45057e-08
-6.55799e-07
5.44198e-08
-6.95344e-07
3.95456e-08
-7.14284e-07
1.89402e-08
-7.06342e-07
-7.94261e-09
-6.65676e-07
-4.06651e-08
-5.88627e-07
-7.70492e-08
-4.75855e-07
-1.12771e-07
-3.35032e-07
-1.40823e-07
-1.84056e-07
-1.50976e-07
-5.57523e-08
-1.28304e-07
-5.57524e-08
-6.48074e-08
9.09394e-08
-1.85303e-07
1.80909e-07
-3.2679e-07
2.15249e-07
-4.73615e-07
2.23964e-07
-6.19343e-07
2.23127e-07
-7.60783e-07
2.17991e-07
-8.95103e-07
2.08915e-07
-1.01873e-06
1.94505e-07
-1.12689e-06
1.72672e-07
-1.21345e-06
1.40979e-07
-1.27087e-06
9.69688e-08
-1.29068e-06
3.8748e-08
-1.26368e-06
-3.49474e-08
-1.18159e-06
-1.22755e-07
-1.03992e-06
-2.18713e-07
-8.40855e-07
-3.11839e-07
-5.97541e-07
-3.84137e-07
-3.38887e-07
-4.0963e-07
-1.14318e-07
-3.52874e-07
-1.7007e-07
-8.36328e-08
1.74572e-07
-2.33314e-07
3.3059e-07
-4.06259e-07
3.88194e-07
-5.84309e-07
4.02014e-07
-7.60016e-07
3.98834e-07
-9.29571e-07
3.87546e-07
-1.08965e-06
3.68992e-07
-1.23621e-06
3.41072e-07
-1.36403e-06
3.00488e-07
-1.46635e-06
2.43302e-07
-1.53481e-06
1.65423e-07
-1.55959e-06
6.35301e-08
-1.52958e-06
-6.49529e-08
-1.43414e-06
-2.18195e-07
-1.26618e-06
-3.86682e-07
-1.02642e-06
-5.5159e-07
-7.29842e-07
-6.8072e-07
-4.12556e-07
-7.26916e-07
-1.37598e-07
-6.27832e-07
-3.07668e-07
-9.10789e-08
2.65651e-07
-2.54375e-07
4.93887e-07
-4.42292e-07
5.76111e-07
-6.35296e-07
5.95018e-07
-8.25891e-07
5.89429e-07
-1.01054e-06
5.72197e-07
-1.18628e-06
5.44729e-07
-1.34945e-06
5.04245e-07
-1.49512e-06
4.46159e-07
-1.61658e-06
3.64754e-07
-1.70486e-06
2.53709e-07
-1.74868e-06
1.07343e-07
-1.73416e-06
-7.9471e-08
-1.64518e-06
-3.0717e-07
-1.46858e-06
-5.63287e-07
-1.19966e-06
-8.20504e-07
-8.53009e-07
-1.02737e-06
-4.74782e-07
-1.10514e-06
-1.50643e-07
-9.51972e-07
-4.58311e-07
-9.4048e-08
3.59699e-07
-2.64394e-07
6.64233e-07
-4.60829e-07
7.72546e-07
-6.63056e-07
7.97244e-07
-8.63923e-07
7.90296e-07
-1.06064e-06
7.68914e-07
-1.25114e-06
7.3523e-07
-1.43275e-06
6.85851e-07
-1.60142e-06
6.14832e-07
-1.75097e-06
5.14306e-07
-1.87211e-06
3.74851e-07
-1.95158e-06
1.86804e-07
-1.97234e-06
-5.87096e-08
-1.90888e-06
-3.70622e-07
-1.73709e-06
-7.35086e-07
-1.44032e-06
-1.11727e-06
-1.028e-06
-1.43969e-06
-5.60195e-07
-1.57295e-06
-1.63726e-07
-1.34844e-06
-6.22036e-07
-9.55771e-08
4.55276e-07
-2.70831e-07
8.39487e-07
-4.73816e-07
9.75531e-07
-6.83747e-07
1.00717e-06
-8.94033e-07
1.00058e-06
-1.10296e-06
9.77836e-07
-1.30981e-06
9.42089e-07
-1.51351e-06
8.89552e-07
-1.71168e-06
8.12994e-07
-1.89953e-06
7.02157e-07
-2.06831e-06
5.43633e-07
-2.20273e-06
3.21222e-07
-2.28488e-06
2.34372e-08
-2.274e-06
-3.81498e-07
-2.1302e-06
-8.78889e-07
-1.81255e-06
-1.43492e-06
-1.31184e-06
-1.9404e-06
-7.01018e-07
-2.18377e-06
-1.81603e-07
-1.86786e-06
-8.03639e-07
-9.66569e-08
5.51933e-07
-2.76285e-07
1.01911e-06
-4.8531e-07
1.18456e-06
-7.02479e-07
1.22434e-06
-9.21893e-07
1.22e-06
-1.14319e-06
1.19913e-06
-1.36751e-06
1.16641e-06
-1.59609e-06
1.11813e-06
-1.82932e-06
1.04623e-06
-2.06546e-06
9.38289e-07
-2.29847e-06
7.76646e-07
-2.51501e-06
5.37761e-07
-2.68729e-06
1.95718e-07
-2.77946e-06
-2.89322e-07
-2.71546e-06
-9.42888e-07
-2.41147e-06
-1.73892e-06
-1.80638e-06
-2.54549e-06
-9.66889e-07
-3.02326e-06
-2.21271e-07
-2.61347e-06
-1.02491e-06
-9.75149e-08
6.49448e-07
-2.81363e-07
1.20296e-06
-4.9604e-07
1.39923e-06
-7.19662e-07
1.44797e-06
-9.47073e-07
1.44741e-06
-1.1795e-06
1.43156e-06
-1.4204e-06
1.40731e-06
-1.67415e-06
1.37189e-06
-1.94531e-06
1.31738e-06
-2.23734e-06
1.23031e-06
-2.55033e-06
1.08964e-06
-2.87695e-06
8.64382e-07
-3.19309e-06
5.11855e-07
-3.46851e-06
-1.38974e-08
-3.58826e-06
-8.23134e-07
-3.39479e-06
-1.93239e-06
-2.70279e-06
-3.23749e-06
-1.51578e-06
-4.21028e-06
-3.46474e-07
-3.78278e-06
-1.37138e-06
-9.82607e-08
7.47709e-07
-2.86243e-07
1.39094e-06
-5.05886e-07
1.61888e-06
-7.34352e-07
1.67643e-06
-9.67174e-07
1.68023e-06
-1.2073e-06
1.67168e-06
-1.46085e-06
1.66086e-06
-1.73609e-06
1.64713e-06
-2.04319e-06
1.62448e-06
-2.39369e-06
1.58081e-06
-2.79916e-06
1.49512e-06
-3.26832e-06
1.33354e-06
-3.7997e-06
1.04323e-06
-4.35594e-06
5.42345e-07
-4.83987e-06
-3.39206e-07
-4.93483e-06
-1.83742e-06
-4.23292e-06
-3.9394e-06
-2.59935e-06
-5.84384e-06
-7.25705e-07
-5.65642e-06
-2.09709e-06
-9.92523e-08
8.46961e-07
-2.91543e-07
1.58324e-06
-5.15208e-07
1.84254e-06
-7.45965e-07
1.90719e-06
-9.79902e-07
1.91417e-06
-1.22165e-06
1.91343e-06
-1.48004e-06
1.91925e-06
-1.76753e-06
1.93463e-06
-2.10095e-06
1.9579e-06
-2.5025e-06
1.98236e-06
-3.00071e-06
1.99333e-06
-3.63126e-06
1.96409e-06
-4.43316e-06
1.84513e-06
-5.40193e-06
1.51111e-06
-6.39887e-06
6.57738e-07
-6.94089e-06
-1.29541e-06
-6.34733e-06
-4.53296e-06
-4.36238e-06
-7.82879e-06
-1.62116e-06
-8.39764e-06
-3.71825e-06
-1.01393e-07
9.48355e-07
-2.98963e-07
1.78081e-06
-5.25746e-07
2.06933e-06
-7.55422e-07
2.13686e-06
-9.8446e-07
2.1432e-06
-1.21895e-06
2.14792e-06
-1.46999e-06
2.17029e-06
-1.75374e-06
2.21838e-06
-2.09335e-06
2.29751e-06
-2.52244e-06
2.41144e-06
-3.08991e-06
2.5608e-06
-3.86438e-06
2.73856e-06
-4.927e-06
2.90776e-06
-6.30268e-06
2.88678e-06
-7.74752e-06
2.10258e-06
-8.63607e-06
-4.06861e-07
-8.27719e-06
-4.89183e-06
-6.39196e-06
-9.71402e-06
-3.06802e-06
-1.17216e-05
-6.78627e-06
-1.06492e-07
1.05485e-06
-3.11971e-07
1.98629e-06
-5.41481e-07
2.29883e-06
-7.66129e-07
2.36151e-06
-9.82786e-07
2.35986e-06
-1.19865e-06
2.36378e-06
-1.42612e-06
2.39775e-06
-1.68317e-06
2.47543e-06
-1.99652e-06
2.61087e-06
-2.40722e-06
2.82214e-06
-2.97861e-06
3.13219e-06
-3.79978e-06
3.55972e-06
-4.9576e-06
4.06558e-06
-6.43243e-06
4.36162e-06
-7.92686e-06
3.59701e-06
-8.77454e-06
4.40814e-07
-8.74892e-06
-4.91745e-06
-7.52959e-06
-1.09333e-05
-4.45594e-06
-1.47952e-05
-1.12422e-05
-1.1777e-07
1.17262e-06
-3.36673e-07
2.20519e-06
-5.69619e-07
2.53178e-06
-7.84953e-07
2.57685e-06
-9.807e-07
2.55561e-06
-1.16508e-06
2.54817e-06
-1.35025e-06
2.58292e-06
-1.55283e-06
2.67802e-06
-1.79733e-06
2.85536e-06
-2.12159e-06
3.14641e-06
-2.58341e-06
3.59401e-06
-3.25629e-06
4.2326e-06
-4.18105e-06
4.99034e-06
-5.26678e-06
5.44734e-06
-6.24475e-06
4.57499e-06
-6.94287e-06
1.13894e-06
-7.22133e-06
-4.63899e-06
-6.8598e-06
-1.12949e-05
-4.62168e-06
-1.70334e-05
-1.58639e-05
-1.4114e-07
1.31376e-06
-3.83332e-07
2.44738e-06
-6.21272e-07
2.76972e-06
-8.22367e-07
2.77794e-06
-9.88216e-07
2.72146e-06
-1.12842e-06
2.68837e-06
-1.25328e-06
2.70777e-06
-1.37418e-06
2.79892e-06
-1.50608e-06
2.98726e-06
-1.67026e-06
3.31059e-06
-1.89514e-06
3.81889e-06
-2.2079e-06
4.54536e-06
-2.60018e-06
5.38262e-06
-2.99897e-06
5.84614e-06
-3.32026e-06
4.89627e-06
-3.734e-06
1.55267e-06
-4.34597e-06
-4.02702e-06
-4.83327e-06
-1.08076e-05
-3.65901e-06
-1.82076e-05
-1.95229e-05
-1.85807e-07
1.49956e-06
-4.68654e-07
2.73023e-06
-7.16169e-07
3.01724e-06
-8.96006e-07
2.95778e-06
-1.02109e-06
2.84654e-06
-1.10548e-06
2.77277e-06
-1.1565e-06
2.75879e-06
-1.17711e-06
2.81953e-06
-1.16767e-06
2.97782e-06
-1.12596e-06
3.26888e-06
-1.04356e-06
3.73649e-06
-9.00605e-07
4.4024e-06
-6.70924e-07
5.15294e-06
-3.95608e-07
5.57082e-06
-2.58848e-07
4.75952e-06
-3.88124e-07
1.68195e-06
-1.12525e-06
-3.28989e-06
-2.28017e-06
-9.65266e-06
-2.2954e-06
-1.81924e-05
-2.18183e-05
-2.69362e-07
1.76893e-06
-6.1506e-07
3.07592e-06
-8.64429e-07
3.2666e-06
-1.01285e-06
3.1062e-06
-1.08953e-06
2.92322e-06
-1.11241e-06
2.79566e-06
-1.08544e-06
2.73182e-06
-1.00212e-06
2.73622e-06
-8.47576e-07
2.82327e-06
-5.97154e-07
3.01846e-06
-2.13063e-07
3.3524e-06
3.64107e-07
3.82523e-06
1.11933e-06
4.39771e-06
1.98905e-06
4.7011e-06
2.68866e-06
4.0599e-06
2.67892e-06
1.69169e-06
1.68484e-06
-2.29582e-06
-4.09775e-08
-7.92684e-06
-9.14717e-07
-1.73186e-05
-2.2733e-05
-4.41421e-07
2.21035e-06
-9.37434e-07
3.57194e-06
-1.16505e-06
3.49422e-06
-1.22292e-06
3.16407e-06
-1.21696e-06
2.91725e-06
-1.16863e-06
2.74733e-06
-1.06705e-06
2.63023e-06
-8.90448e-07
2.55962e-06
-6.12317e-07
2.54514e-06
-1.93634e-07
2.59977e-06
4.16533e-07
2.74223e-06
1.24732e-06
2.99444e-06
2.33611e-06
3.30893e-06
3.57402e-06
3.46318e-06
4.53935e-06
3.09457e-06
4.68093e-06
1.55011e-06
3.65621e-06
-1.2711e-06
1.91185e-06
-6.18247e-06
4.20393e-07
-1.58272e-05
-2.23126e-05
-4.34498e-07
2.64485e-06
-1.0252e-06
4.16264e-06
-1.36199e-06
3.83101e-06
-1.49257e-06
3.29465e-06
-1.4675e-06
2.89219e-06
-1.3313e-06
2.61112e-06
-1.0975e-06
2.39643e-06
-7.6009e-07
2.22221e-06
-3.14221e-07
2.09927e-06
2.71345e-07
2.01421e-06
1.01113e-06
2.00245e-06
1.96851e-06
2.03706e-06
3.135e-06
2.14243e-06
4.43076e-06
2.16743e-06
5.51221e-06
2.01312e-06
5.85783e-06
1.20449e-06
5.29171e-06
-7.04977e-07
3.89965e-06
-4.79042e-06
1.7903e-06
-1.37178e-05
-2.05223e-05
-3.92819e-06
6.57303e-06
-3.78905e-06
4.0235e-06
-2.66317e-06
2.70513e-06
-1.57716e-06
2.20864e-06
-5.82415e-07
1.89744e-06
3.82776e-07
1.64593e-06
1.33104e-06
1.44817e-06
2.27183e-06
1.28142e-06
3.20316e-06
1.16794e-06
4.14953e-06
1.06783e-06
5.12524e-06
1.02675e-06
6.16955e-06
9.92749e-07
7.28287e-06
1.02912e-06
8.4233e-06
1.027e-06
9.50928e-06
9.27147e-07
1.02527e-05
4.61056e-07
1.02107e-05
-6.62989e-07
9.33557e-06
-3.91526e-06
5.36769e-06
-9.74996e-06
-1.51546e-05
6.57303e-06
1.05965e-05
1.33017e-05
1.55103e-05
1.74077e-05
1.90537e-05
2.05018e-05
2.17833e-05
2.29512e-05
2.4019e-05
2.50458e-05
2.60385e-05
2.70676e-05
2.80946e-05
2.90218e-05
2.94828e-05
2.88199e-05
2.49046e-05
1.51546e-05
)
;

boundaryField
{
    movingWall
    {
        type            calculated;
        value           uniform 0;
    }
    fixedWalls
    {
        type            calculated;
        value           uniform 0;
    }
    frontAndBack
    {
        type            empty;
        value           nonuniform List<scalar> 0();
    }
}


// ************************************************************************* //
