/*--------------------------------*- C++ -*----------------------------------*\
| =========                 |                                                 |
| \\      /  F ield         | OpenFOAM: The Open Source CFD Toolbox           |
|  \\    /   O peration     | Version:  2212                                  |
|   \\  /    A nd           | Website:  www.openfoam.com                      |
|    \\/     M anipulation  |                                                 |
\*---------------------------------------------------------------------------*/
FoamFile
{
    version     2.0;
    format      ascii;
    arch        "LSB;label=32;scalar=64";
    class       volScalarField;
    location    "11";
    object      p;
}
// * * * * * * * * * * * * * * * * * * * * * * * * * * * * * * * * * * * * * //

dimensions      [0 2 -2 0 0 0 0];

internalField   nonuniform List<scalar> 
400
(
5.57761e-07
-0.000150429
-0.000534509
-0.00107171
-0.00173243
-0.00249391
-0.00318504
-0.00359761
-0.00356538
-0.00293411
-0.00154856
0.000619393
0.00324961
0.00551413
0.00653384
0.00592299
0.00400221
0.00214979
0.00111078
0.00104171
0.000116457
-5.79574e-05
-0.000376903
-0.000764079
-0.001244
-0.00188812
-0.00270624
-0.00354356
-0.00408005
-0.00393847
-0.00284647
-0.000824879
0.00168938
0.00396096
0.00512477
0.0047432
0.00310313
0.00137491
0.000593313
0.000684332
0.000536575
0.000265106
-7.71863e-05
-0.000559545
-0.00134725
-0.00258065
-0.0042192
-0.00598386
-0.00740266
-0.00794397
-0.00726428
-0.00546206
-0.00289169
-0.000194667
0.00179176
0.00242779
0.00170888
0.000502198
-0.000395984
-0.000392708
0.00115209
0.000741399
0.000192011
-0.000774722
-0.00245111
-0.00493789
-0.00799524
-0.0111206
-0.0137034
-0.015177
-0.0152069
-0.0138399
-0.0112937
-0.00802912
-0.0047523
-0.0022098
-0.000870484
-0.000706324
-0.00128893
-0.00191825
0.00158347
0.000973871
-2.2751e-05
-0.00192403
-0.00500668
-0.00918015
-0.0139138
-0.0184798
-0.0222161
-0.0246528
-0.0255285
-0.0247227
-0.0223633
-0.0187434
-0.0143046
-0.00965571
-0.00559217
-0.002949
-0.00219337
-0.00401808
0.00129352
0.000445176
-0.00119724
-0.00430434
-0.00900503
-0.0148806
-0.0210727
-0.0267152
-0.031191
-0.0341783
-0.035545
-0.0351891
-0.0331965
-0.0297183
-0.0248991
-0.0189608
-0.0125052
-0.0069484
-0.00440098
-0.00652427
-4.81595e-05
-0.00114741
-0.00349935
-0.00779679
-0.0139325
-0.0211143
-0.028236
-0.0344074
-0.0391283
-0.0422315
-0.0437192
-0.0436098
-0.0419721
-0.0388782
-0.0343104
-0.0281568
-0.0205388
-0.0127028
-0.00785482
-0.00774804
-0.00245033
-0.00374203
-0.00669847
-0.0119133
-0.0190398
-0.0269817
-0.0345038
-0.0407787
-0.0454502
-0.0484763
-0.049939
-0.0499302
-0.0485295
-0.0457877
-0.0416617
-0.0359261
-0.0283252
-0.0193708
-0.0118222
-0.00798057
-0.00553748
-0.00691506
-0.0102635
-0.0160218
-0.023658
-0.0318892
-0.0394509
-0.0456123
-0.0501367
-0.0530567
-0.0544858
-0.0545259
-0.0532517
-0.0507249
-0.0469613
-0.0418114
-0.0348673
-0.0259474
-0.016709
-0.00999449
-0.00873357
-0.0100857
-0.0135975
-0.019542
-0.0272861
-0.0354867
-0.0429116
-0.048909
-0.0533086
-0.0561664
-0.0575903
-0.0576615
-0.0564432
-0.0540101
-0.0504503
-0.0457597
-0.0396335
-0.0315236
-0.022321
-0.0143397
-0.0115039
-0.0127577
-0.016219
-0.022054
-0.0296067
-0.0375881
-0.0448257
-0.0506984
-0.0550417
-0.057893
-0.0593352
-0.0594267
-0.0582175
-0.0557877
-0.0522858
-0.0478515
-0.0424304
-0.0353821
-0.0271976
-0.0191791
-0.0135491
-0.0146184
-0.0178556
-0.0233151
-0.0304304
-0.0380621
-0.0451169
-0.0509487
-0.0553278
-0.0582391
-0.0597267
-0.0598291
-0.0585871
-0.0560818
-0.0525144
-0.0481372
-0.0432061
-0.0370558
-0.0300315
-0.0224169
-0.0148371
-0.0155676
-0.0183515
-0.0232098
-0.0296927
-0.036878
-0.0437637
-0.049639
-0.0541535
-0.0571995
-0.0587685
-0.0588756
-0.0575563
-0.0549145
-0.051176
-0.0466549
-0.0419647
-0.0362995
-0.0302256
-0.0228955
-0.0154674
-0.0157217
-0.0177769
-0.0217458
-0.027389
-0.0340308
-0.0407495
-0.0467393
-0.0514915
-0.0547667
-0.0564806
-0.0566216
-0.0552
-0.0523516
-0.048345
-0.0435808
-0.0387299
-0.0331409
-0.0280992
-0.0202789
-0.015574
-0.0152978
-0.0163376
-0.0190873
-0.0236525
-0.0296333
-0.0361706
-0.0423347
-0.0474263
-0.051038
-0.0529787
-0.053182
-0.0516895
-0.0485901
-0.0442257
-0.039053
-0.0337812
-0.0280712
-0.0242312
-0.0143847
-0.0152764
-0.0145498
-0.0142604
-0.0154255
-0.0186843
-0.023894
-0.0302306
-0.0366137
-0.0421367
-0.0461999
-0.048488
-0.0488651
-0.0473519
-0.0440198
-0.039248
-0.0335183
-0.0276408
-0.0216291
-0.0180534
-0.00383278
-0.0146617
-0.0136179
-0.0117065
-0.0110807
-0.0129533
-0.0173798
-0.0235334
-0.0301696
-0.0361923
-0.0408104
-0.0435775
-0.0442605
-0.0428496
-0.0393755
-0.0341846
-0.0276893
-0.0206821
-0.0132762
-0.00678588
0.0160529
-0.0145829
-0.0126568
-0.0086482
-0.00623439
-0.00690983
-0.0107455
-0.0168174
-0.0237394
-0.0302979
-0.0355384
-0.0389027
-0.0400341
-0.0388767
-0.0354473
-0.0298953
-0.0222756
-0.0128726
-0.000688373
0.0166947
0.0570637
-0.0117943
-0.0118304
-0.0057259
-0.00177488
-0.00176486
-0.00540454
-0.0115749
-0.0188145
-0.0258749
-0.0316867
-0.0356615
-0.037361
-0.0366845
-0.0333547
-0.0272238
-0.0175414
-0.00314835
0.02049
0.060704
0.129821
-0.0295165
-0.0106295
-0.000608698
0.00308091
0.00244833
-0.00155687
-0.0079992
-0.015553
-0.0229756
-0.0291731
-0.0335311
-0.0355871
-0.0352004
-0.0319551
-0.0252272
-0.0128598
0.00942254
0.0511712
0.122878
0.226076
)
;

boundaryField
{
    movingWall
    {
        type            zeroGradient;
    }
    fixedWalls
    {
        type            zeroGradient;
    }
    frontAndBack
    {
        type            empty;
    }
}


// ************************************************************************* //
