/*--------------------------------*- C++ -*----------------------------------*\
| =========                 |                                                 |
| \\      /  F ield         | OpenFOAM: The Open Source CFD Toolbox           |
|  \\    /   O peration     | Version:  2212                                  |
|   \\  /    A nd           | Website:  www.openfoam.com                      |
|    \\/     M anipulation  |                                                 |
\*---------------------------------------------------------------------------*/
FoamFile
{
    version     2.0;
    format      ascii;
    arch        "LSB;label=32;scalar=64";
    class       surfaceScalarField;
    location    "11";
    object      phi;
}
// * * * * * * * * * * * * * * * * * * * * * * * * * * * * * * * * * * * * * //

dimensions      [0 3 -1 0 0 0 0];

oriented        oriented;

internalField   nonuniform List<scalar> 
760
(
1.5608e-07
-1.56131e-07
2.93629e-07
-1.37548e-07
3.09993e-07
-1.63646e-08
1.83684e-07
1.26309e-07
-1.20305e-07
3.03989e-07
-6.65927e-07
5.45622e-07
-1.48527e-06
8.19346e-07
-2.49087e-06
1.00559e-06
-3.48035e-06
9.89485e-07
-4.22035e-06
7.39995e-07
-4.54397e-06
3.23627e-07
-4.35365e-06
-1.90325e-07
-3.59375e-06
-7.59893e-07
-2.37898e-06
-1.21477e-06
-9.4001e-07
-1.43897e-06
3.47759e-07
-1.28777e-06
1.08995e-06
-7.42186e-07
1.03308e-06
5.68608e-08
4.60997e-07
5.72086e-07
4.60997e-07
1.25048e-07
-2.81179e-07
7.46097e-08
-8.71099e-08
-2.97025e-07
3.5527e-07
-1.07891e-06
9.08194e-07
-2.31595e-06
1.54103e-06
-3.92742e-06
2.1571e-06
-5.66233e-06
2.55425e-06
-7.20706e-06
2.55032e-06
-8.33696e-06
2.11939e-06
-8.94231e-06
1.34534e-06
-8.97623e-06
3.57547e-07
-8.41622e-06
-7.50331e-07
-7.29364e-06
-1.88248e-06
-5.64204e-06
-2.86638e-06
-3.60582e-06
-3.47519e-06
-1.49023e-06
-3.40336e-06
1.78734e-07
-2.41115e-06
8.58992e-07
-6.23396e-07
5.25711e-07
9.05369e-07
9.86707e-07
-1.276e-07
-1.53579e-07
-6.33933e-07
4.19223e-07
-1.62494e-06
1.34628e-06
-3.1415e-06
2.42475e-06
-5.05757e-06
3.45709e-06
-7.07344e-06
4.17296e-06
-8.87353e-06
4.35435e-06
-1.02778e-05
3.95458e-06
-1.12346e-05
3.07617e-06
-1.17361e-05
1.84689e-06
-1.17302e-05
3.51589e-07
-1.12713e-05
-1.20925e-06
-1.03385e-05
-2.81518e-06
-8.87788e-06
-4.32703e-06
-6.86961e-06
-5.48347e-06
-4.40323e-06
-5.86973e-06
-1.87874e-06
-4.93564e-06
-8.63962e-08
-2.41574e-06
2.94692e-07
5.24281e-07
1.2814e-06
-5.00534e-07
3.46955e-07
-1.56001e-06
1.4787e-06
-3.11955e-06
2.90581e-06
-5.08147e-06
4.38668e-06
-7.18539e-06
5.56101e-06
-9.12341e-06
6.11098e-06
-1.06933e-05
5.92421e-06
-1.18525e-05
5.1138e-06
-1.26291e-05
3.8528e-06
-1.30578e-05
2.27554e-06
-1.31228e-05
4.16634e-07
-1.28833e-05
-1.44876e-06
-1.23005e-05
-3.39801e-06
-1.12725e-05
-5.35495e-06
-9.66883e-06
-7.08718e-06
-7.36469e-06
-8.17388e-06
-4.39879e-06
-7.90154e-06
-1.37807e-06
-5.43647e-06
1.20736e-07
-9.74523e-07
1.40214e-06
-8.61965e-07
1.20892e-06
-2.36177e-06
2.9785e-06
-4.2329e-06
4.77694e-06
-6.2803e-06
6.43409e-06
-8.22275e-06
7.50346e-06
-9.83752e-06
7.72575e-06
-1.1048e-05
7.13464e-06
-1.18806e-05
5.94643e-06
-1.23972e-05
4.36941e-06
-1.26704e-05
2.54875e-06
-1.2791e-05
5.37221e-07
-1.27453e-05
-1.49441e-06
-1.25247e-05
-3.61868e-06
-1.20501e-05
-5.82956e-06
-1.11353e-05
-8.0019e-06
-9.49257e-06
-9.81665e-06
-6.82229e-06
-1.05718e-05
-3.22303e-06
-9.03573e-06
-2.61168e-07
-3.93638e-06
1.14097e-06
-1.08713e-06
2.29605e-06
-2.78472e-06
4.67609e-06
-4.67857e-06
6.6708e-06
-6.5367e-06
8.29221e-06
-8.13473e-06
9.1015e-06
-9.34167e-06
8.9327e-06
-1.01535e-05
7.9465e-06
-1.06354e-05
6.42831e-06
-1.08775e-05
4.61152e-06
-1.09795e-05
2.65073e-06
-1.10627e-05
6.2043e-07
-1.11132e-05
-1.44388e-06
-1.11474e-05
-3.58457e-06
-1.11362e-05
-5.84072e-06
-1.09265e-05
-8.21164e-06
-1.01912e-05
-1.05519e-05
-8.43613e-06
-1.23269e-05
-5.24509e-06
-1.22268e-05
-1.15868e-06
-8.02279e-06
-1.77071e-08
-1.11125e-06
3.40731e-06
-2.75941e-06
6.32425e-06
-4.45745e-06
8.36884e-06
-5.99355e-06
9.82831e-06
-7.2076e-06
1.03155e-05
-8.0373e-06
9.76239e-06
-8.52042e-06
8.42962e-06
-8.74394e-06
6.65184e-06
-8.81133e-06
4.6789e-06
-8.81926e-06
2.65866e-06
-8.84981e-06
6.50986e-07
-8.92116e-06
-1.37253e-06
-9.05324e-06
-3.45248e-06
-9.25776e-06
-5.63621e-06
-9.47872e-06
-7.99068e-06
-9.48539e-06
-1.05452e-05
-8.75908e-06
-1.30532e-05
-6.54129e-06
-1.44446e-05
-2.42498e-06
-1.21391e-05
-2.44269e-06
-9.36637e-07
4.34394e-06
-2.34902e-06
7.73663e-06
-3.737e-06
9.75682e-06
-4.91708e-06
1.10084e-05
-5.78832e-06
1.11868e-05
-6.33393e-06
1.0308e-05
-6.61112e-06
8.70681e-06
-6.71088e-06
6.7516e-06
-6.72903e-06
4.69705e-06
-6.73826e-06
2.6679e-06
-6.7739e-06
6.86618e-07
-6.8527e-06
-1.29373e-06
-6.9956e-06
-3.30958e-06
-7.23325e-06
-5.39856e-06
-7.58325e-06
-7.64068e-06
-7.95565e-06
-1.01728e-05
-7.94141e-06
-1.30674e-05
-6.72259e-06
-1.56634e-05
-3.58987e-06
-1.52718e-05
-6.03255e-06
-6.26068e-07
4.97001e-06
-1.68976e-06
8.80032e-06
-2.72403e-06
1.07911e-05
-3.56425e-06
1.18486e-05
-4.15493e-06
1.17775e-05
-4.50626e-06
1.06593e-05
-4.67719e-06
8.87773e-06
-4.74602e-06
6.82044e-06
-4.78486e-06
4.7359e-06
-4.8369e-06
2.71993e-06
-4.91195e-06
7.61664e-07
-5.01615e-06
-1.18952e-06
-5.15927e-06
-3.16646e-06
-5.36981e-06
-5.18802e-06
-5.70296e-06
-7.30752e-06
-6.17292e-06
-9.70287e-06
-6.56303e-06
-1.26773e-05
-6.13294e-06
-1.60935e-05
-3.92711e-06
-1.74777e-05
-9.95966e-06
-2.33275e-07
5.20329e-06
-8.95035e-07
9.46208e-06
-1.5676e-06
1.14637e-05
-2.09815e-06
1.23792e-05
-2.45905e-06
1.21384e-05
-2.6746e-06
1.08749e-05
-2.793e-06
8.99613e-06
-2.86746e-06
6.89489e-06
-2.9424e-06
4.81084e-06
-3.03965e-06
2.81718e-06
-3.16189e-06
8.83906e-07
-3.3086e-06
-1.0428e-06
-3.47981e-06
-2.99525e-06
-3.68756e-06
-4.98027e-06
-3.98217e-06
-7.01292e-06
-4.4461e-06
-9.23894e-06
-5.02806e-06
-1.20954e-05
-5.12737e-06
-1.59942e-05
-3.56076e-06
-1.90443e-05
-1.35204e-05
1.63764e-07
5.03952e-06
-7.04611e-08
9.69631e-06
-4.03939e-07
1.17971e-05
-6.55479e-07
1.26307e-05
-8.11018e-07
1.22939e-05
-9.01697e-07
1.09656e-05
-9.66873e-07
9.06131e-06
-1.03839e-06
6.96641e-06
-1.1328e-06
4.90524e-06
-1.25784e-06
2.94222e-06
-1.41609e-06
1.04216e-06
-1.60969e-06
-8.492e-07
-1.83705e-06
-2.7679e-06
-2.09577e-06
-4.72155e-06
-2.41302e-06
-6.69567e-06
-2.88015e-06
-8.7718e-06
-3.56276e-06
-1.14128e-05
-4.02716e-06
-1.55298e-05
-3.02687e-06
-2.00446e-05
-1.65473e-05
5.02487e-07
4.53704e-06
7.00727e-07
9.49807e-06
7.44128e-07
1.17537e-05
7.79878e-07
1.25949e-05
8.2484e-07
1.22489e-05
8.53712e-07
1.09367e-05
8.46863e-07
9.06816e-06
7.96109e-07
7.01717e-06
7.02243e-07
4.99911e-06
5.66954e-07
3.07751e-06
3.85004e-07
1.22411e-06
1.50203e-07
-6.14399e-07
-1.38986e-07
-2.47871e-06
-4.89201e-07
-4.37133e-06
-9.03946e-07
-6.28092e-06
-1.42657e-06
-8.24918e-06
-2.20456e-06
-1.06348e-05
-2.95402e-06
-1.47803e-05
-2.46097e-06
-2.05376e-05
-1.90083e-05
7.59797e-07
3.77724e-06
1.3596e-06
8.89827e-06
1.75409e-06
1.13592e-05
2.08517e-06
1.22639e-05
2.35972e-06
1.19744e-05
2.54763e-06
1.07488e-05
2.64084e-06
8.97495e-06
2.65005e-06
7.00796e-06
2.5892e-06
5.05996e-06
2.46461e-06
3.2021e-06
2.26861e-06
1.42011e-06
1.98712e-06
-3.32906e-07
1.62082e-06
-2.1124e-06
1.16482e-06
-3.91534e-06
6.14926e-07
-5.73103e-06
-7.99453e-08
-7.55431e-06
-9.53693e-07
-9.76103e-06
-1.91683e-06
-1.38172e-05
-1.92414e-06
-2.05303e-05
-2.09324e-05
8.7556e-07
2.90168e-06
1.81907e-06
7.95476e-06
2.56415e-06
1.06142e-05
3.20825e-06
1.16198e-05
3.75886e-06
1.14238e-05
4.17278e-06
1.03349e-05
4.43423e-06
8.71351e-06
4.55713e-06
6.88506e-06
4.56427e-06
5.05282e-06
4.4706e-06
3.29577e-06
4.27387e-06
1.61683e-06
3.94141e-06
-4.47006e-10
3.49405e-06
-1.66503e-06
2.90614e-06
-3.32743e-06
2.179e-06
-5.00389e-06
1.33183e-06
-6.70715e-06
2.74347e-07
-8.70355e-06
-9.53141e-07
-1.25897e-05
-1.42488e-06
-2.00585e-05
-2.23573e-05
8.11441e-07
2.09024e-06
1.96505e-06
6.80115e-06
3.01272e-06
9.56648e-06
3.9908e-06
1.06417e-05
4.8724e-06
1.05422e-05
5.59152e-06
9.61574e-06
6.10908e-06
8.19595e-06
6.428e-06
6.56614e-06
6.56898e-06
4.91184e-06
6.5498e-06
3.31495e-06
6.36857e-06
1.79806e-06
6.02259e-06
3.45535e-07
5.47878e-06
-1.12122e-06
4.74468e-06
-2.59333e-06
3.81249e-06
-4.0717e-06
2.71129e-06
-5.60594e-06
1.40174e-06
-7.394e-06
-1.48914e-07
-1.1039e-05
-9.09029e-07
-1.92984e-05
-2.32663e-05
5.81459e-07
1.50878e-06
1.77029e-06
5.61232e-06
3.11548e-06
8.22129e-06
4.47319e-06
9.28398e-06
5.74594e-06
9.26943e-06
6.83513e-06
8.52655e-06
7.67534e-06
7.35575e-06
8.25386e-06
5.98762e-06
8.58292e-06
4.58277e-06
8.67909e-06
3.21878e-06
8.54894e-06
1.92821e-06
8.18957e-06
7.04904e-07
7.55683e-06
-4.88478e-07
6.66819e-06
-1.70469e-06
5.51104e-06
-2.91455e-06
4.12644e-06
-4.22135e-06
2.58852e-06
-5.85608e-06
9.69096e-07
-9.4196e-06
-1.38913e-07
-1.81904e-05
-2.34052e-05
1.54335e-07
1.35445e-06
1.0487e-06
4.71796e-06
2.53354e-06
6.73645e-06
4.26366e-06
7.55386e-06
5.99368e-06
7.53941e-06
7.53583e-06
6.9844e-06
8.78742e-06
6.10416e-06
9.71859e-06
5.05645e-06
1.03244e-05
3.97701e-06
1.0616e-05
2.92714e-06
1.05994e-05
1.9448e-06
1.02801e-05
1.02424e-06
9.61159e-06
1.80015e-07
8.61662e-06
-7.09722e-07
7.28489e-06
-1.58282e-06
5.66864e-06
-2.6051e-06
3.92913e-06
-4.11657e-06
2.25071e-06
-7.74119e-06
6.56934e-07
-1.65966e-05
-2.27483e-05
-5.19153e-07
1.8736e-06
2.0373e-07
3.99507e-06
1.76791e-06
5.17227e-06
3.84151e-06
5.48026e-06
6.00727e-06
5.37365e-06
7.97814e-06
5.01353e-06
9.6175e-06
4.46481e-06
1.08837e-05
3.79024e-06
1.17592e-05
3.1015e-06
1.22601e-05
2.42627e-06
1.23897e-05
1.81517e-06
1.21678e-05
1.24616e-06
1.16186e-05
7.29212e-07
1.07123e-05
1.96549e-07
9.45376e-06
-3.24242e-07
7.9167e-06
-1.06804e-06
6.28709e-06
-2.48695e-06
4.46683e-06
-5.92093e-06
2.05976e-06
-1.41896e-05
-2.06885e-05
-4.18158e-06
6.05518e-06
-3.64416e-06
3.45766e-06
-1.2438e-06
2.77191e-06
1.56268e-06
2.67377e-06
4.31128e-06
2.62505e-06
6.85492e-06
2.46989e-06
9.07987e-06
2.23986e-06
1.09256e-05
1.94449e-06
1.23735e-05
1.65358e-06
1.34505e-05
1.34927e-06
1.41736e-05
1.09209e-06
1.45875e-05
8.32245e-07
1.46798e-05
6.36887e-07
1.44595e-05
4.16889e-07
1.39226e-05
2.12646e-07
1.30851e-05
-2.30496e-07
1.19347e-05
-1.3366e-06
1.01167e-05
-4.10292e-06
5.63959e-06
-9.71247e-06
-1.50489e-05
6.05518e-06
9.51283e-06
1.22847e-05
1.49585e-05
1.75836e-05
2.00535e-05
2.22933e-05
2.42378e-05
2.58914e-05
2.72407e-05
2.83328e-05
2.9165e-05
2.98019e-05
3.02188e-05
3.04314e-05
3.02009e-05
2.88643e-05
2.47614e-05
1.50489e-05
)
;

boundaryField
{
    movingWall
    {
        type            calculated;
        value           uniform 0;
    }
    fixedWalls
    {
        type            calculated;
        value           uniform 0;
    }
    frontAndBack
    {
        type            empty;
        value           nonuniform List<scalar> 0();
    }
}


// ************************************************************************* //
