/*--------------------------------*- C++ -*----------------------------------*\
| =========                 |                                                 |
| \\      /  F ield         | OpenFOAM: The Open Source CFD Toolbox           |
|  \\    /   O peration     | Version:  2212                                  |
|   \\  /    A nd           | Website:  www.openfoam.com                      |
|    \\/     M anipulation  |                                                 |
\*---------------------------------------------------------------------------*/
FoamFile
{
    version     2.0;
    format      ascii;
    arch        "LSB;label=32;scalar=64";
    class       volScalarField;
    location    "11";
    object      T;
}
// * * * * * * * * * * * * * * * * * * * * * * * * * * * * * * * * * * * * * //

dimensions      [0 0 0 1 0 0 0];

internalField   nonuniform List<scalar> 
400
(
0.913161
0.915144
0.919175
0.925123
0.932018
0.938246
0.942642
0.945141
0.946457
0.94734
0.948136
0.948952
0.949818
0.950703
0.951465
0.951872
0.951541
0.950061
0.947646
0.945665
0.915727
0.918151
0.923005
0.929929
0.937202
0.942495
0.945043
0.94593
0.94625
0.94649
0.946947
0.947792
0.949083
0.950745
0.952434
0.953625
0.953514
0.95149
0.948355
0.946088
0.919733
0.92297
0.928971
0.936174
0.941807
0.944197
0.944191
0.943207
0.941954
0.941004
0.940857
0.941861
0.944027
0.947288
0.951047
0.954425
0.955951
0.95415
0.94966
0.94687
0.923653
0.927726
0.934251
0.940099
0.942652
0.941757
0.938958
0.935371
0.931813
0.929181
0.928156
0.929313
0.932509
0.937815
0.944503
0.951521
0.956916
0.958093
0.953079
0.948729
0.926674
0.931236
0.937282
0.94065
0.939677
0.935333
0.929235
0.922495
0.916325
0.911826
0.909793
0.910897
0.914958
0.922131
0.931768
0.942835
0.953374
0.960331
0.959273
0.952208
0.928685
0.933248
0.938019
0.93842
0.93387
0.926004
0.916465
0.906655
0.898105
0.891972
0.88906
0.889899
0.894475
0.902874
0.914687
0.929037
0.944234
0.957448
0.963937
0.95732
0.929837
0.933963
0.937014
0.934451
0.926603
0.915491
0.902896
0.890589
0.880277
0.873073
0.869641
0.870249
0.874982
0.883879
0.896797
0.91321
0.931766
0.949883
0.963375
0.96464
0.93037
0.93384
0.935176
0.930038
0.919376
0.905504
0.890469
0.876372
0.864963
0.857228
0.853601
0.854117
0.858792
0.867625
0.880668
0.897892
0.918581
0.940429
0.959138
0.968572
0.930481
0.933238
0.933075
0.925901
0.91307
0.897141
0.88041
0.86517
0.853142
0.845164
0.841461
0.84194
0.846511
0.855074
0.86767
0.884627
0.90618
0.930828
0.953686
0.96687
0.930322
0.932479
0.931293
0.92286
0.908636
0.89135
0.873511
0.85754
0.845108
0.83692
0.833074
0.833446
0.837903
0.846242
0.858304
0.874413
0.895636
0.921957
0.94877
0.965589
0.929983
0.931709
0.929953
0.920934
0.906051
0.888145
0.869846
0.853565
0.840892
0.832459
0.828334
0.828437
0.832662
0.840762
0.852358
0.867462
0.887524
0.914273
0.944193
0.96477
0.929515
0.931019
0.929231
0.920456
0.905777
0.888002
0.869798
0.853511
0.840677
0.831942
0.827429
0.827104
0.830893
0.838558
0.849597
0.863632
0.882019
0.908205
0.940533
0.964324
0.928913
0.930372
0.928911
0.920973
0.907218
0.890291
0.872806
0.856992
0.844321
0.835466
0.830615
0.829773
0.832913
0.839814
0.849969
0.862776
0.879129
0.903758
0.93764
0.964276
0.928136
0.929729
0.928956
0.92251
0.910508
0.895235
0.879145
0.864307
0.852123
0.843316
0.838166
0.836678
0.838912
0.844652
0.853457
0.86464
0.878711
0.901172
0.935773
0.964551
0.92711
0.92894
0.928843
0.924017
0.914198
0.901214
0.887236
0.874095
0.863049
0.85479
0.849655
0.847635
0.848832
0.853079
0.860027
0.869208
0.880849
0.900412
0.934796
0.965158
0.925888
0.92803
0.928805
0.92585
0.918683
0.908593
0.897346
0.886469
0.877045
0.869696
0.864757
0.862275
0.862279
0.864728
0.869414
0.876113
0.885121
0.901196
0.934761
0.966114
0.924678
0.926779
0.927808
0.926185
0.921446
0.91442
0.906342
0.898338
0.891197
0.88541
0.881193
0.878666
0.87775
0.878539
0.881022
0.885165
0.891807
0.904832
0.936717
0.96774
0.923822
0.926287
0.927973
0.927463
0.924874
0.920696
0.915649
0.91042
0.90551
0.901296
0.897913
0.895519
0.894098
0.893741
0.894677
0.896811
0.901711
0.911746
0.94039
0.969791
0.912532
0.92393
0.924059
0.923828
0.922453
0.920551
0.918344
0.91628
0.914377
0.912976
0.911952
0.911499
0.911546
0.912057
0.913412
0.915139
0.919549
0.927221
0.948984
0.973306
0.938536
0.945993
0.950006
0.952434
0.953757
0.954602
0.955065
0.955528
0.955862
0.956359
0.956799
0.957446
0.958045
0.958851
0.959625
0.960693
0.962045
0.964888
0.970533
0.980504
)
;

boundaryField
{
    movingWall
    {
        type            fixedValue;
        value           uniform 1;
    }
    fixedWalls
    {
        type            zeroGradient;
    }
    frontAndBack
    {
        type            empty;
    }
}


// ************************************************************************* //
