/*--------------------------------*- C++ -*----------------------------------*\
| =========                 |                                                 |
| \\      /  F ield         | OpenFOAM: The Open Source CFD Toolbox           |
|  \\    /   O peration     | Version:  2212                                  |
|   \\  /    A nd           | Website:  www.openfoam.com                      |
|    \\/     M anipulation  |                                                 |
\*---------------------------------------------------------------------------*/
FoamFile
{
    version     2.0;
    format      ascii;
    arch        "LSB;label=32;scalar=64";
    class       volVectorField;
    location    "11";
    object      U;
}
// * * * * * * * * * * * * * * * * * * * * * * * * * * * * * * * * * * * * * //

dimensions      [0 1 -1 0 0 0 0];

internalField   nonuniform List<vector> 
400
(
(0.00168177 -0.00168382 0)
(0.00483869 -0.00189229 0)
(0.00659121 -0.00120075 0)
(0.0056749 -0.000575137 0)
(0.00157228 0.000183976 0)
(-0.00682915 0.00173939 0)
(-0.0206084 0.00478642 0)
(-0.0395417 0.00873622 0)
(-0.0608122 0.0112928 0)
(-0.079139 0.0105126 0)
(-0.0898142 0.00677451 0)
(-0.0904645 0.00166887 0)
(-0.0802268 -0.00361667 0)
(-0.0599941 -0.00827517 0)
(-0.0335206 -0.0108473 0)
(-0.00529205 -0.00979536 0)
(0.0167246 -0.00477297 0)
(0.0244713 0.00277703 0)
(0.016179 0.0064724 0)
(0.00431659 0.00471721 0)
(0.00172052 -0.00506534 0)
(0.00316277 -0.0040326 0)
(-0.000416931 0.000587709 0)
(-0.0113298 0.00644174 0)
(-0.0314263 0.0140503 0)
(-0.0611509 0.0237745 0)
(-0.0968486 0.0330626 0)
(-0.131462 0.0370936 0)
(-0.158976 0.0335181 0)
(-0.176108 0.0234016 0)
(-0.181455 0.00910913 0)
(-0.175083 -0.00699061 0)
(-0.157564 -0.0231751 0)
(-0.129653 -0.0369153 0)
(-0.0936156 -0.0445668 0)
(-0.0521945 -0.0418395 0)
(-0.0113995 -0.0263343 0)
(0.0168904 -0.00127861 0)
(0.0178726 0.0162244 0)
(0.00554231 0.0148203 0)
(-0.000239546 -0.00578071 0)
(-0.00538112 0.00080151 0)
(-0.0196097 0.0142995 0)
(-0.044505 0.0312369 0)
(-0.0803435 0.0494473 0)
(-0.122209 0.064323 0)
(-0.162356 0.0705491 0)
(-0.19528 0.0660309 0)
(-0.218873 0.0521924 0)
(-0.232542 0.0315343 0)
(-0.236298 0.00641586 0)
(-0.230812 -0.0211149 0)
(-0.216397 -0.0488754 0)
(-0.19255 -0.0732299 0)
(-0.159011 -0.0890297 0)
(-0.115745 -0.0892321 0)
(-0.0645642 -0.06703 0)
(-0.013821 -0.0226641 0)
(0.00948177 0.0179195 0)
(0.00415547 0.0235808 0)
(-0.00347203 0.00045293 0)
(-0.0175154 0.0172406 0)
(-0.043518 0.0415024 0)
(-0.0796862 0.0681981 0)
(-0.122966 0.0911655 0)
(-0.165862 0.103854 0)
(-0.201935 0.102908 0)
(-0.22926 0.0896752 0)
(-0.248101 0.0673283 0)
(-0.259056 0.0385803 0)
(-0.262964 0.00531657 0)
(-0.260631 -0.0311196 0)
(-0.251997 -0.068459 0)
(-0.236017 -0.103749 0)
(-0.210703 -0.131496 0)
(-0.173354 -0.142896 0)
(-0.121407 -0.125769 0)
(-0.056846 -0.0708538 0)
(-0.000986757 0.00356739 0)
(0.00474231 0.0282415 0)
(-0.00666311 0.014783 0)
(-0.0287317 0.044113 0)
(-0.0632944 0.0770998 0)
(-0.10447 0.108928 0)
(-0.147293 0.131219 0)
(-0.184596 0.138207 0)
(-0.212937 0.129513 0)
(-0.232723 0.108754 0)
(-0.245241 0.0798016 0)
(-0.252218 0.045449 0)
(-0.255337 0.0072395 0)
(-0.255519 -0.0340008 0)
(-0.252539 -0.0770886 0)
(-0.245855 -0.120694 0)
(-0.232658 -0.160832 0)
(-0.208333 -0.189042 0)
(-0.166829 -0.18999 0)
(-0.103454 -0.142885 0)
(-0.0221828 -0.0388534 0)
(0.00738223 0.0271024 0)
(-0.00851162 0.0348754 0)
(-0.0351807 0.0766447 0)
(-0.0731002 0.114964 0)
(-0.113276 0.147717 0)
(-0.150544 0.166051 0)
(-0.17941 0.165987 0)
(-0.198938 0.149776 0)
(-0.210686 0.122515 0)
(-0.216637 0.0885515 0)
(-0.219269 0.0508729 0)
(-0.220539 0.0109547 0)
(-0.221439 -0.0307611 0)
(-0.22217 -0.0747268 0)
(-0.222842 -0.1213 0)
(-0.221268 -0.169247 0)
(-0.212364 -0.21308 0)
(-0.188043 -0.238607 0)
(-0.139699 -0.218556 0)
(-0.0628538 -0.118948 0)
(0.00584963 0.0142043 0)
(-0.00829401 0.0570103 0)
(-0.0353468 0.110022 0)
(-0.0718468 0.150513 0)
(-0.107092 0.181209 0)
(-0.136732 0.193904 0)
(-0.157141 0.186508 0)
(-0.169054 0.163343 0)
(-0.174595 0.130557 0)
(-0.17617 0.0929091 0)
(-0.17627 0.0534131 0)
(-0.176385 0.013314 0)
(-0.177185 -0.0273141 0)
(-0.179217 -0.0695844 0)
(-0.183024 -0.114739 0)
(-0.18797 -0.163873 0)
(-0.190438 -0.215842 0)
(-0.182548 -0.261693 0)
(-0.154296 -0.27521 0)
(-0.0994124 -0.20593 0)
(-0.00890855 -0.0146249 0)
(-0.00613688 0.0776096 0)
(-0.0297984 0.140578 0)
(-0.0614389 0.181254 0)
(-0.0899145 0.208374 0)
(-0.111928 0.214965 0)
(-0.125468 0.200638 0)
(-0.132161 0.171404 0)
(-0.134315 0.134239 0)
(-0.134379 0.0941216 0)
(-0.134281 0.0537547 0)
(-0.134689 0.0138632 0)
(-0.135782 -0.0258929 0)
(-0.138013 -0.0664922 0)
(-0.142076 -0.109113 0)
(-0.148587 -0.155702 0)
(-0.156249 -0.208618 0)
(-0.159102 -0.265942 0)
(-0.146771 -0.308176 0)
(-0.11227 -0.277245 0)
(-0.0309701 -0.0753456 0)
(-0.00273094 0.0936323 0)
(-0.0204241 0.165674 0)
(-0.0451645 0.205651 0)
(-0.0663645 0.228647 0)
(-0.0816369 0.229609 0)
(-0.0901304 0.209622 0)
(-0.0937652 0.175869 0)
(-0.0946796 0.13583 0)
(-0.0949592 0.0944815 0)
(-0.0957563 0.0540365 0)
(-0.097107 0.0145942 0)
(-0.0989171 -0.0245893 0)
(-0.101353 -0.0642436 0)
(-0.104919 -0.105018 0)
(-0.110763 -0.148502 0)
(-0.119622 -0.198622 0)
(-0.128373 -0.259849 0)
(-0.126543 -0.32351 0)
(-0.107495 -0.334813 0)
(-0.0373551 -0.163464 0)
(0.00121932 0.102781 0)
(-0.00894647 0.183519 0)
(-0.025653 0.223209 0)
(-0.0396555 0.242834 0)
(-0.0491376 0.2396 0)
(-0.0540125 0.215626 0)
(-0.055984 0.178869 0)
(-0.0566986 0.137171 0)
(-0.0576609 0.0954138 0)
(-0.059404 0.0552768 0)
(-0.0616976 0.0163107 0)
(-0.0643982 -0.0224957 0)
(-0.0674968 -0.0617482 0)
(-0.0711717 -0.101645 0)
(-0.0763547 -0.142854 0)
(-0.0846157 -0.188998 0)
(-0.0960817 -0.248418 0)
(-0.100663 -0.324378 0)
(-0.0951826 -0.372281 0)
(-0.0309264 -0.24262 0)
(0.0051192 0.103948 0)
(0.00295743 0.193122 0)
(-0.00539183 0.233706 0)
(-0.0125104 0.250869 0)
(-0.0169025 0.244785 0)
(-0.0187905 0.218568 0)
(-0.0194796 0.180505 0)
(-0.0200088 0.138428 0)
(-0.0213077 0.0969692 0)
(-0.023544 0.0574279 0)
(-0.0264332 0.019083 0)
(-0.0299168 -0.0191703 0)
(-0.0340115 -0.0579864 0)
(-0.0386552 -0.0974159 0)
(-0.0443936 -0.137375 0)
(-0.0524531 -0.180247 0)
(-0.0657692 -0.23572 0)
(-0.0742266 -0.318158 0)
(-0.0812034 -0.396787 0)
(-0.0229435 -0.307182 0)
(0.00845917 0.0974735 0)
(0.0142231 0.194116 0)
(0.0141061 0.23723 0)
(0.0137116 0.25365 0)
(0.0143346 0.246572 0)
(0.0155317 0.219864 0)
(0.0163915 0.181814 0)
(0.0164453 0.140099 0)
(0.0153075 0.0991571 0)
(0.0130305 0.0602281 0)
(0.00986277 0.0226274 0)
(0.00575436 -0.0147541 0)
(0.000562279 -0.0527009 0)
(-0.00556377 -0.0913087 0)
(-0.0130321 -0.130206 0)
(-0.0219793 -0.170389 0)
(-0.0377199 -0.220765 0)
(-0.0487298 -0.304519 0)
(-0.0679047 -0.408531 0)
(-0.0144592 -0.360064 0)
(0.0103311 0.0844927 0)
(0.023423 0.186519 0)
(0.031088 0.233353 0)
(0.0370188 0.250195 0)
(0.0426817 0.243357 0)
(0.0476376 0.217572 0)
(0.0510759 0.180809 0)
(0.0527526 0.140402 0)
(0.052622 0.100638 0)
(0.0508935 0.0628257 0)
(0.0477842 0.0264581 0)
(0.0431761 -0.00952188 0)
(0.0369018 -0.046005 0)
(0.0290855 -0.0831456 0)
(0.0189289 -0.120576 0)
(0.00760189 -0.15852 0)
(-0.0118141 -0.204478 0)
(-0.0242362 -0.286522 0)
(-0.0558426 -0.411037 0)
(-0.0061371 -0.401911 0)
(0.00987988 0.067239 0)
(0.0290353 0.170708 0)
(0.0443639 0.22226 0)
(0.0569089 0.24136 0)
(0.068205 0.236434 0)
(0.0778946 0.213072 0)
(0.0851183 0.178778 0)
(0.0895754 0.140436 0)
(0.0913423 0.102273 0)
(0.0907186 0.0658337 0)
(0.088034 0.0309806 0)
(0.0829848 -0.00330315 0)
(0.0754693 -0.0375509 0)
(0.0657756 -0.0723376 0)
(0.0525214 -0.107467 0)
(0.0375853 -0.142819 0)
(0.0131402 -0.184305 0)
(8.65774e-05 -0.263282 0)
(-0.0447944 -0.406736 0)
(0.00276661 -0.436287 0)
(0.00693109 0.0493982 0)
(0.0293706 0.148981 0)
(0.0511234 0.203667 0)
(0.070006 0.22459 0)
(0.087486 0.221735 0)
(0.103184 0.201576 0)
(0.115858 0.170981 0)
(0.124827 0.136089 0)
(0.130001 0.100888 0)
(0.131624 0.0670565 0)
(0.129962 0.0348445 0)
(0.125038 0.00342802 0)
(0.116406 -0.0274731 0)
(0.104671 -0.0587165 0)
(0.0875736 -0.0903442 0)
(0.0683796 -0.122965 0)
(0.03831 -0.160886 0)
(0.0238681 -0.237181 0)
(-0.0344356 -0.398981 0)
(0.0134766 -0.464442 0)
(0.00238758 0.0346258 0)
(0.023646 0.123909 0)
(0.0509692 0.179969 0)
(0.076707 0.202973 0)
(0.101378 0.202664 0)
(0.124267 0.186263 0)
(0.143726 0.160205 0)
(0.158539 0.129772 0)
(0.168288 0.0985769 0)
(0.173181 0.0683075 0)
(0.173158 0.0395616 0)
(0.16893 0.0119336 0)
(0.159092 -0.0149183 0)
(0.145356 -0.0417278 0)
(0.124047 -0.0687742 0)
(0.100501 -0.0975788 0)
(0.0646395 -0.132735 0)
(0.0470161 -0.207474 0)
(-0.0226997 -0.387094 0)
(0.0285352 -0.485566 0)
(-0.00342643 0.0286113 0)
(0.0100754 0.101504 0)
(0.0371209 0.148709 0)
(0.0689925 0.16948 0)
(0.101893 0.170703 0)
(0.13362 0.158412 0)
(0.161624 0.137976 0)
(0.184176 0.113571 0)
(0.200229 0.0882803 0)
(0.210158 0.0636351 0)
(0.213084 0.0403805 0)
(0.210831 0.0183992 0)
(0.200564 -0.00268353 0)
(0.185929 -0.0233241 0)
(0.161109 -0.0439931 0)
(0.134484 -0.0677569 0)
(0.0929441 -0.101709 0)
(0.0698842 -0.180026 0)
(-0.00436315 -0.370059 0)
(0.0521634 -0.491644 0)
(-0.0140131 0.0185152 0)
(-0.00751619 0.0881756 0)
(0.0192241 0.124199 0)
(0.0564639 0.13733 0)
(0.0976252 0.136924 0)
(0.138016 0.127742 0)
(0.174276 0.113084 0)
(0.204128 0.0953038 0)
(0.226028 0.0768289 0)
(0.241126 0.0586772 0)
(0.247163 0.0418017 0)
(0.248079 0.0261047 0)
(0.238738 0.0117381 0)
(0.226918 -0.00205538 0)
(0.201913 -0.0160975 0)
(0.177922 -0.0350346 0)
(0.133567 -0.0678128 0)
(0.107846 -0.146007 0)
(0.0374753 -0.32612 0)
(0.0923687 -0.455871 0)
(-0.106021 0.0824165 0)
(-0.0777608 0.0689896 0)
(-0.0485677 0.0733713 0)
(0.00378433 0.0778931 0)
(0.0573045 0.0782283 0)
(0.110042 0.0739646 0)
(0.157216 0.0666291 0)
(0.199584 0.0572238 0)
(0.231699 0.0475467 0)
(0.259855 0.0378888 0)
(0.275583 0.02922 0)
(0.290739 0.0212324 0)
(0.291089 0.0144735 0)
(0.295198 0.00808926 0)
(0.278891 0.00112031 0)
(0.271671 -0.0100171 0)
(0.232356 -0.0355715 0)
(0.218146 -0.0954206 0)
(0.150209 -0.229723 0)
(0.170672 -0.341455 0)
(0.129969 0.103744 0)
(0.158319 0.075227 0)
(0.212163 0.0532266 0)
(0.270671 0.041622 0)
(0.323248 0.0359126 0)
(0.375692 0.0319484 0)
(0.42029 0.0289165 0)
(0.465611 0.025581 0)
(0.498709 0.0229029 0)
(0.533961 0.0197104 0)
(0.5534 0.0175474 0)
(0.57921 0.0146093 0)
(0.585347 0.0131643 0)
(0.603685 0.0103452 0)
(0.595103 0.00938278 0)
(0.603603 0.00499915 0)
(0.567792 8.87038e-05 0)
(0.547612 -0.0183162 0)
(0.435689 -0.0504144 0)
(0.336753 -0.101386 0)
)
;

boundaryField
{
    movingWall
    {
        type            fixedValue;
        value           uniform (1 0 0);
    }
    fixedWalls
    {
        type            noSlip;
    }
    frontAndBack
    {
        type            empty;
    }
}


// ************************************************************************* //
