/*--------------------------------*- C++ -*----------------------------------*\
| =========                 |                                                 |
| \\      /  F ield         | OpenFOAM: The Open Source CFD Toolbox           |
|  \\    /   O peration     | Version:  2212                                  |
|   \\  /    A nd           | Website:  www.openfoam.com                      |
|    \\/     M anipulation  |                                                 |
\*---------------------------------------------------------------------------*/
FoamFile
{
    version     2.0;
    format      ascii;
    arch        "LSB;label=32;scalar=64";
    class       volVectorField;
    location    "12.7";
    object      U;
}
// * * * * * * * * * * * * * * * * * * * * * * * * * * * * * * * * * * * * * //

dimensions      [0 1 -1 0 0 0 0];

internalField   nonuniform List<vector> 
400
(
(0.0016819 -0.00168369 0)
(0.00483892 -0.00189223 0)
(0.00659137 -0.00120073 0)
(0.00567505 -0.000575138 0)
(0.00157242 0.000183967 0)
(-0.00682906 0.00173938 0)
(-0.0206084 0.00478646 0)
(-0.0395419 0.00873631 0)
(-0.0608126 0.0112929 0)
(-0.0791394 0.0105127 0)
(-0.0898147 0.0067745 0)
(-0.0904648 0.00166881 0)
(-0.0802269 -0.00361677 0)
(-0.059994 -0.00827527 0)
(-0.0335203 -0.0108474 0)
(-0.00529155 -0.00979539 0)
(0.0167251 -0.0047729 0)
(0.0244717 0.00277712 0)
(0.0161792 0.00647249 0)
(0.00431661 0.00471726 0)
(0.00172062 -0.00506521 0)
(0.00316298 -0.00403255 0)
(-0.000416709 0.000587726 0)
(-0.0113296 0.00644177 0)
(-0.0314263 0.0140504 0)
(-0.0611511 0.0237747 0)
(-0.0968492 0.0330629 0)
(-0.131463 0.037094 0)
(-0.158977 0.0335184 0)
(-0.176109 0.0234017 0)
(-0.181456 0.00910904 0)
(-0.175084 -0.00699083 0)
(-0.157565 -0.0231755 0)
(-0.129654 -0.0369156 0)
(-0.0936156 -0.0445671 0)
(-0.0521942 -0.0418397 0)
(-0.0113991 -0.0263342 0)
(0.0168908 -0.00127836 0)
(0.0178729 0.0162247 0)
(0.00554234 0.0148205 0)
(-0.000239479 -0.00578076 0)
(-0.00538097 0.000801466 0)
(-0.0196095 0.0142996 0)
(-0.0445051 0.0312371 0)
(-0.0803439 0.0494477 0)
(-0.12221 0.0643236 0)
(-0.162357 0.0705498 0)
(-0.195281 0.0660314 0)
(-0.218875 0.0521927 0)
(-0.232543 0.0315344 0)
(-0.236299 0.00641568 0)
(-0.230813 -0.0211153 0)
(-0.216398 -0.048876 0)
(-0.192551 -0.0732305 0)
(-0.159012 -0.0890303 0)
(-0.115745 -0.0892324 0)
(-0.0645643 -0.0670301 0)
(-0.0138208 -0.0226637 0)
(0.00948192 0.0179199 0)
(0.00415547 0.023581 0)
(-0.003472 0.000452804 0)
(-0.0175154 0.0172406 0)
(-0.0435181 0.0415026 0)
(-0.0796867 0.0681986 0)
(-0.122967 0.0911664 0)
(-0.165863 0.103855 0)
(-0.201937 0.102909 0)
(-0.229262 0.089676 0)
(-0.248103 0.0673288 0)
(-0.259058 0.0385804 0)
(-0.262966 0.00531632 0)
(-0.260633 -0.0311202 0)
(-0.251999 -0.0684599 0)
(-0.236019 -0.10375 0)
(-0.210705 -0.131498 0)
(-0.173356 -0.142897 0)
(-0.121408 -0.125769 0)
(-0.0568461 -0.0708536 0)
(-0.000986629 0.00356786 0)
(0.00474231 0.0282418 0)
(-0.00666313 0.0147829 0)
(-0.0287318 0.0441131 0)
(-0.0632949 0.0771004 0)
(-0.104471 0.108929 0)
(-0.147294 0.13122 0)
(-0.184598 0.138208 0)
(-0.212939 0.129514 0)
(-0.232725 0.108755 0)
(-0.245244 0.0798023 0)
(-0.252221 0.0454492 0)
(-0.25534 0.00723922 0)
(-0.255522 -0.0340016 0)
(-0.252541 -0.0770897 0)
(-0.245858 -0.120695 0)
(-0.23266 -0.160833 0)
(-0.208335 -0.189043 0)
(-0.16683 -0.189991 0)
(-0.103455 -0.142885 0)
(-0.0221828 -0.038853 0)
(0.00738231 0.0271028 0)
(-0.0085117 0.0348754 0)
(-0.035181 0.0766452 0)
(-0.0731009 0.114965 0)
(-0.113278 0.147719 0)
(-0.150545 0.166053 0)
(-0.179412 0.165989 0)
(-0.19894 0.149777 0)
(-0.210689 0.122516 0)
(-0.21664 0.0885524 0)
(-0.219272 0.0508733 0)
(-0.220542 0.0109544 0)
(-0.221442 -0.0307619 0)
(-0.222173 -0.0747281 0)
(-0.222845 -0.121301 0)
(-0.221271 -0.169249 0)
(-0.212366 -0.213081 0)
(-0.188044 -0.238609 0)
(-0.1397 -0.218557 0)
(-0.0628542 -0.118949 0)
(0.00584978 0.0142046 0)
(-0.00829412 0.0570107 0)
(-0.0353472 0.110022 0)
(-0.0718477 0.150514 0)
(-0.107094 0.18121 0)
(-0.136734 0.193906 0)
(-0.157143 0.18651 0)
(-0.169057 0.163345 0)
(-0.174598 0.130559 0)
(-0.176173 0.0929103 0)
(-0.176274 0.0534137 0)
(-0.176388 0.0133138 0)
(-0.177189 -0.0273151 0)
(-0.17922 -0.069586 0)
(-0.183027 -0.114741 0)
(-0.187972 -0.163876 0)
(-0.19044 -0.215845 0)
(-0.18255 -0.261695 0)
(-0.154298 -0.275211 0)
(-0.0994133 -0.205931 0)
(-0.00890857 -0.0146247 0)
(-0.00613699 0.0776102 0)
(-0.0297988 0.140579 0)
(-0.0614397 0.181256 0)
(-0.0899158 0.208376 0)
(-0.11193 0.214967 0)
(-0.12547 0.20064 0)
(-0.132163 0.171406 0)
(-0.134318 0.134241 0)
(-0.134383 0.0941231 0)
(-0.134285 0.0537555 0)
(-0.134692 0.0138631 0)
(-0.135786 -0.025894 0)
(-0.138017 -0.0664942 0)
(-0.142079 -0.109115 0)
(-0.148589 -0.155705 0)
(-0.156251 -0.20862 0)
(-0.159104 -0.265944 0)
(-0.146773 -0.308178 0)
(-0.112271 -0.277246 0)
(-0.0309704 -0.075346 0)
(-0.00273102 0.0936331 0)
(-0.0204244 0.165676 0)
(-0.0451652 0.205653 0)
(-0.0663656 0.228649 0)
(-0.0816382 0.229612 0)
(-0.0901321 0.209625 0)
(-0.0937672 0.175872 0)
(-0.0946821 0.135832 0)
(-0.094962 0.0944834 0)
(-0.0957594 0.0540377 0)
(-0.0971103 0.0145943 0)
(-0.0989205 -0.0245904 0)
(-0.101356 -0.0642459 0)
(-0.104922 -0.105021 0)
(-0.110766 -0.148505 0)
(-0.119624 -0.198626 0)
(-0.128374 -0.259852 0)
(-0.126544 -0.323512 0)
(-0.107495 -0.334815 0)
(-0.0373555 -0.163466 0)
(0.0012193 0.102782 0)
(-0.00894668 0.183521 0)
(-0.0256534 0.223211 0)
(-0.0396562 0.242837 0)
(-0.0491385 0.239603 0)
(-0.0540137 0.215629 0)
(-0.0559854 0.178872 0)
(-0.0567003 0.137174 0)
(-0.057663 0.0954161 0)
(-0.0594063 0.0552782 0)
(-0.0617 0.016311 0)
(-0.0644007 -0.0224968 0)
(-0.0674993 -0.0617506 0)
(-0.071174 -0.101649 0)
(-0.0763567 -0.142859 0)
(-0.0846172 -0.189002 0)
(-0.0960828 -0.248421 0)
(-0.100664 -0.324381 0)
(-0.095183 -0.372283 0)
(-0.0309266 -0.242622 0)
(0.00511926 0.103949 0)
(0.0029574 0.193124 0)
(-0.005392 0.233709 0)
(-0.0125107 0.250872 0)
(-0.0169029 0.244788 0)
(-0.018791 0.218571 0)
(-0.0194803 0.180508 0)
(-0.0200097 0.138431 0)
(-0.0213087 0.0969717 0)
(-0.0235452 0.0574295 0)
(-0.0264344 0.0190834 0)
(-0.0299181 -0.0191713 0)
(-0.0340128 -0.0579887 0)
(-0.0386565 -0.0974193 0)
(-0.0443949 -0.137379 0)
(-0.0524541 -0.180252 0)
(-0.0657699 -0.235723 0)
(-0.0742269 -0.318161 0)
(-0.0812036 -0.39679 0)
(-0.0229436 -0.307184 0)
(0.00845931 0.0974746 0)
(0.0142233 0.194118 0)
(0.0141063 0.237232 0)
(0.0137118 0.253653 0)
(0.0143347 0.246575 0)
(0.0155318 0.219867 0)
(0.0163916 0.181818 0)
(0.0164454 0.140102 0)
(0.0153077 0.0991597 0)
(0.0130307 0.0602298 0)
(0.00986295 0.022628 0)
(0.00575448 -0.0147549 0)
(0.000562287 -0.052703 0)
(-0.00556389 -0.0913121 0)
(-0.0130324 -0.13021 0)
(-0.0219796 -0.170393 0)
(-0.0377201 -0.220769 0)
(-0.0487297 -0.304522 0)
(-0.0679046 -0.408533 0)
(-0.0144592 -0.360066 0)
(0.0103314 0.0844936 0)
(0.0234234 0.186521 0)
(0.0310885 0.233356 0)
(0.0370194 0.250198 0)
(0.0426824 0.24336 0)
(0.0476385 0.217575 0)
(0.0510769 0.180812 0)
(0.0527537 0.140405 0)
(0.0526233 0.10064 0)
(0.0508949 0.0628274 0)
(0.0477857 0.0264587 0)
(0.0431775 -0.00952256 0)
(0.0369031 -0.0460069 0)
(0.0290866 -0.0831487 0)
(0.0189297 -0.12058 0)
(0.00760243 -0.158525 0)
(-0.0118138 -0.204482 0)
(-0.0242357 -0.286525 0)
(-0.0558424 -0.411039 0)
(-0.00613702 -0.401913 0)
(0.00988012 0.0672396 0)
(0.0290359 0.17071 0)
(0.0443648 0.222263 0)
(0.0569099 0.241363 0)
(0.0682063 0.236437 0)
(0.0778961 0.213075 0)
(0.08512 0.178781 0)
(0.0895774 0.140439 0)
(0.0913445 0.102276 0)
(0.0907211 0.0658353 0)
(0.0880367 0.0309812 0)
(0.0829874 -0.00330369 0)
(0.0754718 -0.0375526 0)
(0.0657778 -0.0723404 0)
(0.0525231 -0.107471 0)
(0.0375866 -0.142823 0)
(0.0131411 -0.184309 0)
(8.73627e-05 -0.263285 0)
(-0.044794 -0.406737 0)
(0.00276674 -0.436288 0)
(0.00693127 0.0493984 0)
(0.0293712 0.148983 0)
(0.0511245 0.203669 0)
(0.0700074 0.224593 0)
(0.0874877 0.221737 0)
(0.103186 0.201579 0)
(0.115861 0.170984 0)
(0.12483 0.136091 0)
(0.130004 0.10089 0)
(0.131628 0.0670579 0)
(0.129965 0.0348451 0)
(0.125041 0.00342757 0)
(0.116409 -0.0274746 0)
(0.104674 -0.0587189 0)
(0.0875762 -0.0903473 0)
(0.0683817 -0.122969 0)
(0.0383115 -0.160889 0)
(0.023869 -0.237183 0)
(-0.0344351 -0.398983 0)
(0.0134768 -0.464443 0)
(0.00238764 0.0346256 0)
(0.0236466 0.123909 0)
(0.0509703 0.179971 0)
(0.0767085 0.202975 0)
(0.10138 0.202666 0)
(0.124269 0.186265 0)
(0.143728 0.160208 0)
(0.158542 0.129774 0)
(0.168292 0.0985786 0)
(0.173185 0.0683087 0)
(0.173162 0.0395621 0)
(0.168934 0.0119332 0)
(0.159096 -0.0149195 0)
(0.145359 -0.0417296 0)
(0.124051 -0.0687767 0)
(0.100504 -0.0975817 0)
(0.0646414 -0.132737 0)
(0.0470171 -0.207476 0)
(-0.0226991 -0.387095 0)
(0.0285355 -0.485566 0)
(-0.00342647 0.0286108 0)
(0.0100758 0.101505 0)
(0.0371218 0.148711 0)
(0.0689939 0.169482 0)
(0.101895 0.170705 0)
(0.133622 0.158414 0)
(0.161627 0.137978 0)
(0.184179 0.113572 0)
(0.200233 0.0882816 0)
(0.210162 0.063636 0)
(0.213088 0.0403808 0)
(0.210835 0.018399 0)
(0.200569 -0.00268445 0)
(0.185934 -0.0233256 0)
(0.161112 -0.043995 0)
(0.134487 -0.067759 0)
(0.092946 -0.101711 0)
(0.0698851 -0.180027 0)
(-0.00436261 -0.370059 0)
(0.0521637 -0.491645 0)
(-0.0140134 0.0185147 0)
(-0.00751625 0.0881755 0)
(0.0192246 0.1242 0)
(0.056465 0.13733 0)
(0.0976269 0.136925 0)
(0.138018 0.127743 0)
(0.174279 0.113085 0)
(0.204131 0.095305 0)
(0.226032 0.0768298 0)
(0.24113 0.0586779 0)
(0.247167 0.0418019 0)
(0.248084 0.0261045 0)
(0.238742 0.0117374 0)
(0.226922 -0.00205633 0)
(0.201917 -0.0160987 0)
(0.177925 -0.0350359 0)
(0.133569 -0.0678142 0)
(0.107847 -0.146008 0)
(0.0374757 -0.32612 0)
(0.0923689 -0.455871 0)
(-0.106021 0.0824162 0)
(-0.077761 0.0689893 0)
(-0.0485677 0.0733715 0)
(0.00378474 0.0778935 0)
(0.0573055 0.0782289 0)
(0.110043 0.0739653 0)
(0.157218 0.0666298 0)
(0.199587 0.0572244 0)
(0.231702 0.0475471 0)
(0.259858 0.0378891 0)
(0.275587 0.0292201 0)
(0.290742 0.0212323 0)
(0.291093 0.0144732 0)
(0.295201 0.00808876 0)
(0.278893 0.00111967 0)
(0.271673 -0.0100177 0)
(0.232357 -0.0355721 0)
(0.218147 -0.0954208 0)
(0.150209 -0.229723 0)
(0.170672 -0.341455 0)
(0.129968 0.103744 0)
(0.158319 0.0752268 0)
(0.212163 0.0532264 0)
(0.270671 0.0416218 0)
(0.323248 0.0359125 0)
(0.375692 0.0319484 0)
(0.42029 0.0289164 0)
(0.465612 0.025581 0)
(0.49871 0.0229029 0)
(0.533962 0.0197104 0)
(0.553401 0.0175473 0)
(0.579212 0.0146092 0)
(0.585348 0.0131642 0)
(0.603686 0.0103451 0)
(0.595104 0.00938262 0)
(0.603603 0.004999 0)
(0.567792 8.85919e-05 0)
(0.547612 -0.0183163 0)
(0.435689 -0.0504144 0)
(0.336753 -0.101385 0)
)
;

boundaryField
{
    movingWall
    {
        type            fixedValue;
        value           uniform (1 0 0);
    }
    fixedWalls
    {
        type            noSlip;
    }
    frontAndBack
    {
        type            empty;
    }
}


// ************************************************************************* //
