/*--------------------------------*- C++ -*----------------------------------*\
| =========                 |                                                 |
| \\      /  F ield         | OpenFOAM: The Open Source CFD Toolbox           |
|  \\    /   O peration     | Version:  2212                                  |
|   \\  /    A nd           | Website:  www.openfoam.com                      |
|    \\/     M anipulation  |                                                 |
\*---------------------------------------------------------------------------*/
FoamFile
{
    version     2.0;
    format      ascii;
    arch        "LSB;label=32;scalar=64";
    class       surfaceScalarField;
    location    "2.2";
    object      phi;
}
// * * * * * * * * * * * * * * * * * * * * * * * * * * * * * * * * * * * * * //

dimensions      [0 3 -1 0 0 0 0];

oriented        oriented;

internalField   nonuniform List<scalar> 
760
(
1.12933e-07
-1.12933e-07
2.01394e-07
-8.84604e-08
1.9729e-07
4.10435e-09
7.83757e-08
1.18914e-07
-1.91181e-07
2.69557e-07
-6.63285e-07
4.72104e-07
-1.36687e-06
7.03586e-07
-2.2428e-06
8.75927e-07
-3.12921e-06
8.86408e-07
-3.81956e-06
6.90357e-07
-4.14745e-06
3.2789e-07
-4.0167e-06
-1.30755e-07
-3.35661e-06
-6.6009e-07
-2.26741e-06
-1.08919e-06
-9.5945e-07
-1.30796e-06
2.23003e-07
-1.18245e-06
9.27731e-07
-7.04728e-07
9.12969e-07
1.47622e-08
4.13775e-07
4.99194e-07
4.13775e-07
5.69973e-08
-1.69931e-07
-4.17143e-08
1.02519e-08
-3.87152e-07
3.49542e-07
-1.06405e-06
7.95811e-07
-2.12225e-06
1.32776e-06
-3.51886e-06
1.86871e-06
-5.06873e-06
2.25346e-06
-6.50404e-06
2.31123e-06
-7.59735e-06
1.97973e-06
-8.21797e-06
1.31097e-06
-8.30786e-06
4.1778e-07
-7.83166e-06
-6.06956e-07
-6.81824e-06
-1.67351e-06
-5.29865e-06
-2.60878e-06
-3.40989e-06
-3.19672e-06
-1.43999e-06
-3.15236e-06
1.1284e-07
-2.25756e-06
7.65064e-07
-6.37461e-07
4.78689e-07
7.85569e-07
8.92464e-07
-1.67101e-07
-2.82985e-09
-6.42531e-07
4.85683e-07
-1.50648e-06
1.21349e-06
-2.80777e-06
2.0971e-06
-4.48134e-06
3.00132e-06
-6.30707e-06
3.69444e-06
-8.00595e-06
3.95235e-06
-9.38115e-06
3.68642e-06
-1.03492e-05
2.94779e-06
-1.08849e-05
1.84662e-06
-1.09447e-05
4.77631e-07
-1.05475e-05
-1.00419e-06
-9.69046e-06
-2.53053e-06
-8.32549e-06
-3.97374e-06
-6.43505e-06
-5.08717e-06
-4.11774e-06
-5.46967e-06
-1.75272e-06
-4.62257e-06
-8.46831e-08
-2.3055e-06
2.80199e-07
4.20688e-07
1.17266e-06
-4.51629e-07
4.488e-07
-1.38678e-06
1.42083e-06
-2.7349e-06
2.56161e-06
-4.45581e-06
3.81801e-06
-6.36776e-06
4.91327e-06
-8.20853e-06
5.5352e-06
-9.76652e-06
5.51035e-06
-1.0956e-05
4.87585e-06
-1.17793e-05
3.77118e-06
-1.22587e-05
2.32603e-06
-1.23798e-05
5.98707e-07
-1.21807e-05
-1.20328e-06
-1.16424e-05
-3.06881e-06
-1.06678e-05
-4.94841e-06
-9.13545e-06
-6.61951e-06
-6.92987e-06
-7.67524e-06
-4.11062e-06
-7.44182e-06
-1.28152e-06
-5.1346e-06
1.15129e-07
-9.75962e-07
1.28779e-06
-7.38999e-07
1.1878e-06
-2.03402e-06
2.71586e-06
-3.67137e-06
4.19896e-06
-5.52345e-06
5.6701e-06
-7.36409e-06
6.75391e-06
-8.97201e-06
7.14312e-06
-1.02324e-05
6.77073e-06
-1.11349e-05
5.77841e-06
-1.17214e-05
4.35761e-06
-1.20531e-05
2.65777e-06
-1.22037e-05
7.49332e-07
-1.21847e-05
-1.22231e-06
-1.19855e-05
-3.26804e-06
-1.15271e-05
-5.4068e-06
-1.06317e-05
-7.51486e-06
-9.02544e-06
-9.28154e-06
-6.44128e-06
-1.0026e-05
-3.00903e-06
-8.56684e-06
-2.41826e-07
-3.74317e-06
1.04597e-06
-9.14628e-07
2.10243e-06
-2.38521e-06
4.18644e-06
-4.07423e-06
5.88798e-06
-5.80577e-06
7.40164e-06
-7.37466e-06
8.3228e-06
-8.62719e-06
8.39565e-06
-9.51637e-06
7.6599e-06
-1.00769e-05
6.33889e-06
-1.03824e-05
4.66313e-06
-1.05257e-05
2.80112e-06
-1.06223e-05
8.45868e-07
-1.06922e-05
-1.15239e-06
-1.07368e-05
-3.22345e-06
-1.07307e-05
-5.41286e-06
-1.05217e-05
-7.72391e-06
-9.78589e-06
-1.00173e-05
-8.04956e-06
-1.17623e-05
-4.94285e-06
-1.16735e-05
-1.07656e-06
-7.60946e-06
-3.05921e-08
-9.3015e-07
3.03258e-06
-2.3707e-06
5.62699e-06
-3.91446e-06
7.43174e-06
-5.37617e-06
8.86334e-06
-6.59809e-06
9.54472e-06
-7.48674e-06
9.2843e-06
-8.0405e-06
8.21366e-06
-8.32125e-06
6.61964e-06
-8.42167e-06
4.76355e-06
-8.44028e-06
2.81973e-06
-8.46824e-06
8.73833e-07
-8.54355e-06
-1.07708e-06
-8.68437e-06
-3.08263e-06
-8.90518e-06
-5.19205e-06
-9.1457e-06
-7.48339e-06
-9.16391e-06
-9.9991e-06
-8.44029e-06
-1.24859e-05
-6.25263e-06
-1.38612e-05
-2.27421e-06
-1.15879e-05
-2.3048e-06
-7.85225e-07
3.8178e-06
-2.0297e-06
6.87147e-06
-3.30769e-06
8.70973e-06
-4.44446e-06
1.00001e-05
-5.33127e-06
1.04315e-05
-5.92253e-06
9.87556e-06
-6.24469e-06
8.53582e-06
-6.37078e-06
6.74572e-06
-6.39228e-06
4.78506e-06
-6.39085e-06
2.8183e-06
-6.41524e-06
8.9822e-07
-6.48769e-06
-1.00463e-06
-6.63386e-06
-2.93646e-06
-6.89074e-06
-4.93516e-06
-7.27624e-06
-7.09789e-06
-7.68983e-06
-9.58552e-06
-7.70225e-06
-1.24735e-05
-6.49702e-06
-1.50664e-05
-3.39295e-06
-1.4692e-05
-5.69775e-06
-5.24861e-07
4.34266e-06
-1.46685e-06
7.81346e-06
-2.42501e-06
9.66788e-06
-3.23607e-06
1.08112e-05
-3.83389e-06
1.10293e-05
-4.20776e-06
1.02494e-05
-4.39682e-06
8.72488e-06
-4.46904e-06
6.81795e-06
-4.49794e-06
4.81395e-06
-4.53529e-06
2.85565e-06
-4.59853e-06
9.61458e-07
-4.69268e-06
-9.10476e-07
-4.83282e-06
-2.79633e-06
-5.05389e-06
-4.71409e-06
-5.42099e-06
-6.73079e-06
-5.94605e-06
-9.06045e-06
-6.38427e-06
-1.20353e-05
-5.97202e-06
-1.54787e-05
-3.79476e-06
-1.68692e-05
-9.49251e-06
-1.95943e-07
4.53861e-06
-7.81717e-07
8.39923e-06
-1.40426e-06
1.02904e-05
-1.91102e-06
1.13179e-05
-2.2652e-06
1.13835e-05
-2.47932e-06
1.04635e-05
-2.59331e-06
8.83888e-06
-2.65804e-06
6.88268e-06
-2.71972e-06
4.87563e-06
-2.80541e-06
2.94134e-06
-2.91896e-06
1.075e-06
-3.05645e-06
-7.72979e-07
-3.21942e-06
-2.63336e-06
-3.42586e-06
-4.50765e-06
-3.74076e-06
-6.41589e-06
-4.25696e-06
-8.54425e-06
-4.90136e-06
-1.13909e-05
-5.03295e-06
-1.53471e-05
-3.48984e-06
-1.84123e-05
-1.29823e-05
1.35521e-07
4.40308e-06
-6.55948e-08
8.60035e-06
-3.68165e-07
1.0593e-05
-5.99704e-07
1.15495e-05
-7.38584e-07
1.15224e-05
-8.10633e-07
1.05356e-05
-8.55025e-07
8.88327e-06
-9.07643e-07
6.9353e-06
-9.88828e-07
4.95682e-06
-1.10535e-06
3.05786e-06
-1.25717e-06
1.22683e-06
-1.44305e-06
-5.871e-07
-1.66194e-06
-2.41447e-06
-1.91213e-06
-4.25746e-06
-2.23386e-06
-6.09416e-06
-2.73797e-06
-8.04015e-06
-3.48121e-06
-1.06477e-05
-3.9821e-06
-1.48462e-05
-2.99417e-06
-1.94003e-05
-1.59765e-05
4.10838e-07
3.99225e-06
5.83303e-07
8.42788e-06
6.28986e-07
1.05473e-05
6.82265e-07
1.14962e-05
7.58692e-07
1.1446e-05
8.25941e-07
1.04683e-05
8.54053e-07
8.85516e-06
8.29423e-07
6.95993e-06
7.51582e-07
5.03466e-06
6.25857e-07
3.18359e-06
4.51601e-07
1.40109e-06
2.23848e-07
-3.59347e-07
-5.40561e-08
-2.13656e-06
-3.9782e-07
-3.9137e-06
-8.10241e-07
-5.68174e-06
-1.35277e-06
-7.49762e-06
-2.18002e-06
-9.8204e-06
-2.96149e-06
-1.40648e-05
-2.46609e-06
-1.98957e-05
-1.84426e-05
6.10384e-07
3.38186e-06
1.1274e-06
7.91087e-06
1.49139e-06
1.01833e-05
1.82785e-06
1.11597e-05
2.14025e-06
1.11336e-05
2.38043e-06
1.02282e-05
2.52107e-06
8.71452e-06
2.56351e-06
6.91749e-06
2.52263e-06
5.07553e-06
2.41047e-06
3.29575e-06
2.22663e-06
1.58493e-06
1.95143e-06
-8.41433e-08
1.592e-06
-1.77714e-06
1.14443e-06
-3.46612e-06
6.03108e-07
-5.14042e-06
-9.37957e-08
-6.80072e-06
-9.98208e-07
-8.91598e-06
-1.98484e-06
-1.30781e-05
-1.95719e-06
-1.99233e-05
-2.03998e-05
6.9203e-07
2.68983e-06
1.49073e-06
7.11217e-06
2.16001e-06
9.51405e-06
2.78439e-06
1.05353e-05
3.35897e-06
1.0559e-05
3.82308e-06
9.76406e-06
4.13782e-06
8.39978e-06
4.30261e-06
6.75269e-06
4.33762e-06
5.04052e-06
4.26108e-06
3.37229e-06
4.07387e-06
1.77214e-06
3.76785e-06
2.21883e-07
3.326e-06
-1.33529e-06
2.75048e-06
-2.8906e-06
2.04093e-06
-4.43087e-06
1.21135e-06
-5.97114e-06
1.54018e-07
-7.85865e-06
-1.07365e-06
-1.18505e-05
-1.4828e-06
-1.95142e-05
-2.18826e-05
6.29545e-07
2.06029e-06
1.57975e-06
6.16197e-06
2.5014e-06
8.5924e-06
3.41754e-06
9.6192e-06
4.29125e-06
9.6853e-06
5.0411e-06
9.01421e-06
5.60447e-06
7.8364e-06
5.96556e-06
6.3916e-06
6.13844e-06
4.86764e-06
6.14264e-06
3.36809e-06
5.98389e-06
1.93088e-06
5.65221e-06
5.53571e-07
5.12848e-06
-8.11566e-07
4.41873e-06
-2.18085e-06
3.52008e-06
-3.53222e-06
2.46634e-06
-4.9174e-06
1.20403e-06
-6.59635e-06
-2.73395e-07
-1.0373e-05
-1.0022e-06
-1.87854e-05
-2.28848e-05
4.38036e-07
1.62225e-06
1.38548e-06
5.21452e-06
2.54027e-06
7.4376e-06
3.76424e-06
8.39523e-06
4.96917e-06
8.48037e-06
6.04588e-06
7.9375e-06
6.90703e-06
6.97525e-06
7.51791e-06
5.78073e-06
7.87928e-06
4.50626e-06
8.0053e-06
3.24208e-06
7.90356e-06
2.03262e-06
7.57513e-06
8.82005e-07
6.97715e-06
-2.13593e-07
6.1344e-06
-1.3381e-06
5.03703e-06
-2.43485e-06
3.73791e-06
-3.61828e-06
2.28771e-06
-5.14615e-06
7.26072e-07
-8.81139e-06
-2.56647e-07
-1.78026e-05
-2.31414e-05
6.88394e-08
1.55341e-06
7.23691e-07
4.55967e-06
1.97473e-06
6.18657e-06
3.50244e-06
6.86752e-06
5.09193e-06
6.89088e-06
6.56031e-06
6.46912e-06
7.78685e-06
5.74871e-06
8.72074e-06
4.84684e-06
9.34197e-06
3.88504e-06
9.65722e-06
2.92682e-06
9.66655e-06
2.0233e-06
9.37808e-06
1.17047e-06
8.77837e-06
3.86112e-07
7.84434e-06
-4.04067e-07
6.60926e-06
-1.19977e-06
5.12098e-06
-2.12999e-06
3.53933e-06
-3.5645e-06
2.0056e-06
-7.27765e-06
5.59295e-07
-1.63563e-05
-2.25821e-05
-4.68148e-07
2.02156e-06
5.35523e-08
4.03797e-06
1.30852e-06
4.9316e-06
3.08036e-06
5.09568e-06
5.00771e-06
4.96352e-06
6.82086e-06
4.65598e-06
8.36999e-06
4.19957e-06
9.59584e-06
3.62099e-06
1.04627e-05
3.01817e-06
1.09801e-05
2.40945e-06
1.1147e-05
1.85634e-06
1.09852e-05
1.33227e-06
1.04993e-05
8.72017e-07
9.6968e-06
3.98472e-07
8.59326e-06
-9.62331e-08
7.23529e-06
-7.72022e-07
5.82498e-06
-2.15419e-06
4.20647e-06
-5.65914e-06
1.94934e-06
-1.40992e-05
-2.06328e-05
-4.12976e-06
6.15132e-06
-3.66024e-06
3.56845e-06
-1.47785e-06
2.74921e-06
1.05282e-06
2.565e-06
3.54351e-06
2.47283e-06
5.88324e-06
2.31626e-06
7.97025e-06
2.11256e-06
9.73908e-06
1.85216e-06
1.11584e-05
1.59882e-06
1.2243e-05
1.32485e-06
1.30017e-05
1.0977e-06
1.34736e-05
8.60377e-07
1.36544e-05
6.91219e-07
1.35682e-05
4.8466e-07
1.31728e-05
2.99089e-07
1.24888e-05
-8.80026e-08
1.15547e-05
-1.22006e-06
9.94017e-06
-4.04461e-06
5.56576e-06
-9.72479e-06
-1.5067e-05
6.15132e-06
9.71978e-06
1.2469e-05
1.5034e-05
1.75068e-05
1.98231e-05
2.19356e-05
2.37878e-05
2.53866e-05
2.67115e-05
2.78092e-05
2.86695e-05
2.93608e-05
2.98454e-05
3.01445e-05
3.00565e-05
2.88364e-05
2.47918e-05
1.5067e-05
)
;

boundaryField
{
    movingWall
    {
        type            calculated;
        value           uniform 0;
    }
    fixedWalls
    {
        type            calculated;
        value           uniform 0;
    }
    frontAndBack
    {
        type            empty;
        value           nonuniform List<scalar> 0();
    }
}


// ************************************************************************* //
