/*--------------------------------*- C++ -*----------------------------------*\
| =========                 |                                                 |
| \\      /  F ield         | OpenFOAM: The Open Source CFD Toolbox           |
|  \\    /   O peration     | Version:  2212                                  |
|   \\  /    A nd           | Website:  www.openfoam.com                      |
|    \\/     M anipulation  |                                                 |
\*---------------------------------------------------------------------------*/
FoamFile
{
    version     2.0;
    format      ascii;
    arch        "LSB;label=32;scalar=64";
    class       volScalarField;
    location    "20.9";
    object      T;
}
// * * * * * * * * * * * * * * * * * * * * * * * * * * * * * * * * * * * * * //

dimensions      [0 0 0 1 0 0 0];

internalField   nonuniform List<scalar> 
400
(
0.987615
0.987873
0.988396
0.98917
0.990074
0.990903
0.9915
0.991851
0.992042
0.992173
0.992292
0.992415
0.992548
0.992685
0.992806
0.992877
0.992841
0.992642
0.992311
0.99204
0.987944
0.98826
0.988893
0.989801
0.990764
0.991478
0.99183
0.991953
0.991995
0.992027
0.992093
0.992219
0.992415
0.99267
0.992932
0.993124
0.993128
0.992852
0.992416
0.992102
0.988456
0.988882
0.989671
0.990623
0.991375
0.991693
0.991679
0.991521
0.991323
0.991174
0.991149
0.991299
0.991627
0.992122
0.992697
0.99322
0.993472
0.993238
0.992608
0.992217
0.988959
0.989497
0.990359
0.991131
0.991457
0.991303
0.990869
0.990318
0.989774
0.989371
0.989214
0.989388
0.989872
0.990675
0.991689
0.992756
0.993586
0.993797
0.9931
0.992486
0.989344
0.989948
0.990741
0.991166
0.990986
0.990319
0.989386
0.98836
0.987422
0.986738
0.986429
0.986596
0.987212
0.9883
0.989759
0.991433
0.993028
0.994094
0.993982
0.992982
0.989597
0.990196
0.990804
0.990804
0.990097
0.988899
0.987446
0.985955
0.984655
0.983722
0.983279
0.983407
0.984103
0.985381
0.987174
0.989348
0.991645
0.99364
0.994635
0.993708
0.989735
0.990267
0.990624
0.99019
0.988992
0.987301
0.985384
0.983512
0.981941
0.980842
0.980318
0.980411
0.981133
0.98249
0.984457
0.986951
0.989762
0.992497
0.99453
0.99475
0.989791
0.990226
0.990331
0.989516
0.987893
0.985782
0.983494
0.981346
0.979604
0.978421
0.977865
0.977944
0.978659
0.98001
0.982001
0.984624
0.987766
0.991071
0.99389
0.995307
0.98979
0.990122
0.990006
0.988887
0.986935
0.98451
0.981962
0.979636
0.977796
0.976573
0.976005
0.976078
0.976778
0.97809
0.980018
0.982606
0.985885
0.98962
0.99307
0.995052
0.989755
0.990002
0.989735
0.988425
0.986261
0.983629
0.98091
0.97847
0.976566
0.975309
0.974718
0.974774
0.975458
0.976737
0.978585
0.981049
0.984284
0.988278
0.992328
0.994858
0.989697
0.989885
0.989535
0.988134
0.985868
0.983141
0.98035
0.977862
0.97592
0.974625
0.97399
0.974005
0.974654
0.975897
0.977675
0.979988
0.983051
0.987116
0.991639
0.994735
0.989624
0.989786
0.989433
0.988065
0.985828
0.98312
0.980344
0.977854
0.975887
0.974546
0.973852
0.973801
0.974383
0.975559
0.977252
0.979402
0.982213
0.986197
0.991086
0.994667
0.989532
0.989696
0.989395
0.988149
0.986048
0.983469
0.980803
0.978387
0.976446
0.975088
0.974342
0.974212
0.974694
0.975752
0.977309
0.979272
0.981774
0.985524
0.990651
0.99466
0.989418
0.989609
0.989417
0.988393
0.986553
0.984224
0.981771
0.979506
0.977642
0.976292
0.975502
0.975273
0.975615
0.976495
0.977844
0.979557
0.981711
0.985134
0.990369
0.994701
0.989268
0.989502
0.989417
0.988633
0.987119
0.985137
0.983006
0.981001
0.979313
0.97805
0.977263
0.976954
0.977137
0.977787
0.97885
0.980256
0.982038
0.985022
0.990223
0.994792
0.989091
0.989378
0.989433
0.988931
0.987813
0.986266
0.984549
0.98289
0.981452
0.980329
0.979574
0.979195
0.979195
0.97957
0.980287
0.981313
0.982692
0.985144
0.990219
0.994936
0.988914
0.989197
0.989298
0.989001
0.988248
0.987163
0.985926
0.984703
0.983613
0.98273
0.982086
0.9817
0.981561
0.981682
0.982063
0.982697
0.983713
0.985699
0.990516
0.99518
0.98879
0.989135
0.989342
0.989219
0.988793
0.988137
0.987357
0.986554
0.985803
0.985159
0.984643
0.984278
0.984061
0.984008
0.984151
0.984478
0.985224
0.986749
0.991071
0.995488
0.987095
0.988753
0.988745
0.988681
0.988451
0.988147
0.9878
0.987477
0.987181
0.986963
0.986803
0.98673
0.986733
0.986807
0.987009
0.987268
0.987933
0.98909
0.992366
0.996016
0.990937
0.992032
0.992617
0.992968
0.993154
0.993271
0.993331
0.993393
0.993436
0.993505
0.993565
0.993658
0.993744
0.993861
0.993974
0.994131
0.994332
0.994757
0.995604
0.997095
)
;

boundaryField
{
    movingWall
    {
        type            fixedValue;
        value           uniform 1;
    }
    fixedWalls
    {
        type            zeroGradient;
    }
    frontAndBack
    {
        type            empty;
    }
}


// ************************************************************************* //
