/*--------------------------------*- C++ -*----------------------------------*\
| =========                 |                                                 |
| \\      /  F ield         | OpenFOAM: The Open Source CFD Toolbox           |
|  \\    /   O peration     | Version:  2212                                  |
|   \\  /    A nd           | Website:  www.openfoam.com                      |
|    \\/     M anipulation  |                                                 |
\*---------------------------------------------------------------------------*/
FoamFile
{
    version     2.0;
    format      ascii;
    arch        "LSB;label=32;scalar=64";
    class       surfaceScalarField;
    location    "10.2";
    object      phi;
}
// * * * * * * * * * * * * * * * * * * * * * * * * * * * * * * * * * * * * * //

dimensions      [0 3 -1 0 0 0 0];

oriented        oriented;

internalField   nonuniform List<scalar> 
760
(
1.56075e-07
-1.56129e-07
2.9362e-07
-1.37545e-07
3.09983e-07
-1.63632e-08
1.83674e-07
1.26309e-07
-1.20313e-07
3.03987e-07
-6.65929e-07
5.45616e-07
-1.48526e-06
8.19335e-07
-2.49085e-06
1.00558e-06
-3.48032e-06
9.89476e-07
-4.22031e-06
7.39993e-07
-4.54394e-06
3.23631e-07
-4.35363e-06
-1.90313e-07
-3.59375e-06
-7.59878e-07
-2.379e-06
-1.21476e-06
-9.4004e-07
-1.43896e-06
3.47723e-07
-1.28776e-06
1.08992e-06
-7.42193e-07
1.03307e-06
5.68485e-08
4.60991e-07
5.72077e-07
4.60993e-07
1.25041e-07
-2.8117e-07
7.45976e-08
-8.71016e-08
-2.97036e-07
3.55271e-07
-1.07891e-06
9.08186e-07
-2.31594e-06
1.54101e-06
-3.92739e-06
2.15707e-06
-5.66228e-06
2.55422e-06
-7.207e-06
2.5503e-06
-8.33689e-06
2.11937e-06
-8.94224e-06
1.34534e-06
-8.97617e-06
3.57558e-07
-8.41617e-06
-7.50307e-07
-7.29361e-06
-1.88244e-06
-5.64203e-06
-2.86634e-06
-3.60582e-06
-3.47516e-06
-1.49025e-06
-3.40334e-06
1.78708e-07
-2.41115e-06
8.58973e-07
-6.23418e-07
5.25702e-07
9.05346e-07
9.86695e-07
-1.27605e-07
-1.53565e-07
-6.33939e-07
4.19232e-07
-1.62494e-06
1.34627e-06
-3.14148e-06
2.42473e-06
-5.05753e-06
3.45705e-06
-7.07337e-06
4.17291e-06
-8.87344e-06
4.3543e-06
-1.02777e-05
3.95454e-06
-1.12345e-05
3.07614e-06
-1.1736e-05
1.84689e-06
-1.17301e-05
3.51606e-07
-1.12712e-05
-1.20922e-06
-1.03385e-05
-2.81513e-06
-8.87782e-06
-4.32698e-06
-6.86957e-06
-5.48341e-06
-4.40322e-06
-5.86969e-06
-1.87875e-06
-4.93562e-06
-8.64057e-08
-2.41576e-06
2.94688e-07
5.24252e-07
1.28138e-06
-5.00532e-07
3.46968e-07
-1.56e-06
1.4787e-06
-3.11952e-06
2.90579e-06
-5.08142e-06
4.38663e-06
-7.18531e-06
5.56094e-06
-9.1233e-06
6.11091e-06
-1.06931e-05
5.92414e-06
-1.18523e-05
5.11375e-06
-1.2629e-05
3.85276e-06
-1.30576e-05
2.27553e-06
-1.31227e-05
4.16655e-07
-1.28831e-05
-1.44872e-06
-1.23003e-05
-3.39795e-06
-1.12724e-05
-5.35488e-06
-9.66875e-06
-7.0871e-06
-7.36463e-06
-8.17381e-06
-4.39877e-06
-7.90149e-06
-1.37807e-06
-5.43645e-06
1.20732e-07
-9.74549e-07
1.40211e-06
-8.61956e-07
1.20892e-06
-2.36174e-06
2.97849e-06
-4.23284e-06
4.77689e-06
-6.28022e-06
6.43401e-06
-8.22264e-06
7.50336e-06
-9.83739e-06
7.72566e-06
-1.10478e-05
7.13455e-06
-1.18804e-05
5.94636e-06
-1.2397e-05
4.36936e-06
-1.26702e-05
2.54873e-06
-1.27908e-05
5.37241e-07
-1.27452e-05
-1.49436e-06
-1.25245e-05
-3.6186e-06
-1.20499e-05
-5.82946e-06
-1.11352e-05
-8.0018e-06
-9.49248e-06
-9.81655e-06
-6.82223e-06
-1.05717e-05
-3.223e-06
-9.03568e-06
-2.61171e-07
-3.93638e-06
1.14094e-06
-1.08711e-06
2.29604e-06
-2.78467e-06
4.67605e-06
-4.6785e-06
6.67072e-06
-6.5366e-06
8.2921e-06
-8.13461e-06
9.10137e-06
-9.34153e-06
8.93258e-06
-1.01534e-05
7.94639e-06
-1.06352e-05
6.42822e-06
-1.08773e-05
4.61145e-06
-1.09793e-05
2.6507e-06
-1.10625e-05
6.20446e-07
-1.1113e-05
-1.44382e-06
-1.11472e-05
-3.58447e-06
-1.1136e-05
-5.8406e-06
-1.09263e-05
-8.21151e-06
-1.01911e-05
-1.05518e-05
-8.43604e-06
-1.23268e-05
-5.24504e-06
-1.22267e-05
-1.15867e-06
-8.02275e-06
-1.77247e-08
-1.11123e-06
3.40727e-06
-2.75936e-06
6.32418e-06
-4.45737e-06
8.36873e-06
-5.99344e-06
9.82817e-06
-7.20747e-06
1.03154e-05
-8.03715e-06
9.76225e-06
-8.52025e-06
8.42949e-06
-8.74375e-06
6.65173e-06
-8.81111e-06
4.67881e-06
-8.81902e-06
2.65862e-06
-8.84957e-06
6.50995e-07
-8.92092e-06
-1.37247e-06
-9.05303e-06
-3.45236e-06
-9.25757e-06
-5.63605e-06
-9.47857e-06
-7.99051e-06
-9.48527e-06
-1.05451e-05
-8.75898e-06
-1.30531e-05
-6.54122e-06
-1.44444e-05
-2.42495e-06
-1.2139e-05
-2.44268e-06
-9.36616e-07
4.34389e-06
-2.34897e-06
7.73653e-06
-3.73693e-06
9.75669e-06
-4.91699e-06
1.10082e-05
-5.7882e-06
1.11866e-05
-6.33379e-06
1.03078e-05
-6.61095e-06
8.70665e-06
-6.71069e-06
6.75146e-06
-6.72882e-06
4.69694e-06
-6.73803e-06
2.66783e-06
-6.77365e-06
6.86617e-07
-6.85246e-06
-1.29365e-06
-6.99538e-06
-3.30944e-06
-7.23306e-06
-5.39838e-06
-7.5831e-06
-7.64047e-06
-7.95553e-06
-1.01726e-05
-7.94133e-06
-1.30673e-05
-6.72252e-06
-1.56633e-05
-3.58982e-06
-1.52717e-05
-6.0325e-06
-6.26051e-07
4.96994e-06
-1.68973e-06
8.80021e-06
-2.72397e-06
1.07909e-05
-3.56417e-06
1.18484e-05
-4.15483e-06
1.17773e-05
-4.50615e-06
1.06592e-05
-4.67704e-06
8.87755e-06
-4.74585e-06
6.82027e-06
-4.78467e-06
4.73576e-06
-4.83669e-06
2.71985e-06
-4.91173e-06
7.61652e-07
-5.01593e-06
-1.18945e-06
-5.15906e-06
-3.16631e-06
-5.36963e-06
-5.18781e-06
-5.70282e-06
-7.30728e-06
-6.17282e-06
-9.70263e-06
-6.56296e-06
-1.26771e-05
-6.13289e-06
-1.60933e-05
-3.92707e-06
-1.74775e-05
-9.95957e-06
-2.33266e-07
5.2032e-06
-8.95011e-07
9.46195e-06
-1.56756e-06
1.14635e-05
-2.0981e-06
1.2379e-05
-2.45899e-06
1.21382e-05
-2.67452e-06
1.08747e-05
-2.7929e-06
8.99593e-06
-2.86734e-06
6.8947e-06
-2.94226e-06
4.81068e-06
-3.03949e-06
2.81708e-06
-3.16173e-06
8.83885e-07
-3.30844e-06
-1.04273e-06
-3.47965e-06
-2.9951e-06
-3.68741e-06
-4.98005e-06
-3.98204e-06
-7.01265e-06
-4.44601e-06
-9.23866e-06
-5.028e-06
-1.20952e-05
-5.12733e-06
-1.5994e-05
-3.56073e-06
-1.90441e-05
-1.35203e-05
1.63763e-07
5.03944e-06
-7.04544e-08
9.69617e-06
-4.03925e-07
1.1797e-05
-6.55457e-07
1.26305e-05
-8.10988e-07
1.22937e-05
-9.01659e-07
1.09654e-05
-9.66825e-07
9.0611e-06
-1.03834e-06
6.96621e-06
-1.13273e-06
4.90508e-06
-1.25776e-06
2.94212e-06
-1.41601e-06
1.04214e-06
-1.60961e-06
-8.4914e-07
-1.83696e-06
-2.76775e-06
-2.09568e-06
-4.72132e-06
-2.41294e-06
-6.69539e-06
-2.88009e-06
-8.77151e-06
-3.56273e-06
-1.14125e-05
-4.02714e-06
-1.55296e-05
-3.02686e-06
-2.00444e-05
-1.65472e-05
5.02476e-07
4.53696e-06
7.00715e-07
9.49793e-06
7.44115e-07
1.17536e-05
7.79865e-07
1.25947e-05
8.24828e-07
1.22487e-05
8.53701e-07
1.09365e-05
8.46852e-07
9.06795e-06
7.96095e-07
7.01697e-06
7.02228e-07
4.99894e-06
5.6694e-07
3.0774e-06
3.84994e-07
1.22408e-06
1.502e-07
-6.14345e-07
-1.3898e-07
-2.47857e-06
-4.89184e-07
-4.37112e-06
-9.03923e-07
-6.28065e-06
-1.42655e-06
-8.24888e-06
-2.20455e-06
-1.06345e-05
-2.95402e-06
-1.47801e-05
-2.46097e-06
-2.05375e-05
-1.90081e-05
7.59777e-07
3.77719e-06
1.35956e-06
8.89814e-06
1.75405e-06
1.13591e-05
2.08512e-06
1.22637e-05
2.35966e-06
1.19742e-05
2.54757e-06
1.07486e-05
2.64077e-06
8.97475e-06
2.64996e-06
7.00778e-06
2.5891e-06
5.05981e-06
2.46451e-06
3.202e-06
2.26852e-06
1.42008e-06
1.98703e-06
-3.32861e-07
1.62074e-06
-2.11228e-06
1.16477e-06
-3.91514e-06
6.14889e-07
-5.73077e-06
-7.99688e-08
-7.55403e-06
-9.53717e-07
-9.76076e-06
-1.91685e-06
-1.3817e-05
-1.92415e-06
-2.05302e-05
-2.09323e-05
8.75534e-07
2.90165e-06
1.81902e-06
7.95466e-06
2.56408e-06
1.0614e-05
3.20817e-06
1.16196e-05
3.75876e-06
1.14236e-05
4.17267e-06
1.03347e-05
4.4341e-06
8.71332e-06
4.55698e-06
6.8849e-06
4.56411e-06
5.05268e-06
4.47043e-06
3.29568e-06
4.2737e-06
1.6168e-06
3.94125e-06
-4.1192e-10
3.4939e-06
-1.66492e-06
2.90602e-06
-3.32726e-06
2.1789e-06
-5.00366e-06
1.33176e-06
-6.70689e-06
2.74298e-07
-8.7033e-06
-9.5318e-07
-1.25895e-05
-1.4249e-06
-2.00584e-05
-2.23572e-05
8.11415e-07
2.09024e-06
1.96499e-06
6.80108e-06
3.01264e-06
9.56636e-06
3.9907e-06
1.06415e-05
4.87227e-06
1.0542e-05
5.59138e-06
9.61557e-06
6.10891e-06
8.19579e-06
6.42781e-06
6.566e-06
6.56877e-06
4.91172e-06
6.54957e-06
3.31487e-06
6.36834e-06
1.79804e-06
6.02236e-06
3.45563e-07
5.47857e-06
-1.12113e-06
4.7445e-06
-2.59319e-06
3.81235e-06
-4.07151e-06
2.71118e-06
-5.60572e-06
1.40167e-06
-7.39378e-06
-1.4895e-07
-1.10389e-05
-9.09055e-07
-1.92983e-05
-2.32662e-05
5.8144e-07
1.5088e-06
1.77024e-06
5.61228e-06
3.11539e-06
8.2212e-06
4.47307e-06
9.28385e-06
5.7458e-06
9.26929e-06
6.83496e-06
8.52641e-06
7.67513e-06
7.35561e-06
8.25363e-06
5.98751e-06
8.58267e-06
4.58268e-06
8.67882e-06
3.21872e-06
8.54867e-06
1.92819e-06
8.1893e-06
7.04927e-07
7.55658e-06
-4.88407e-07
6.66797e-06
-1.70458e-06
5.51086e-06
-2.9144e-06
4.12631e-06
-4.22117e-06
2.58843e-06
-5.85591e-06
9.69032e-07
-9.41948e-06
-1.38942e-07
-1.81904e-05
-2.34052e-05
1.54324e-07
1.35448e-06
1.04866e-06
4.71795e-06
2.53346e-06
6.7364e-06
4.26355e-06
7.55377e-06
5.99353e-06
7.53931e-06
7.53565e-06
6.98429e-06
8.7872e-06
6.10406e-06
9.71835e-06
5.05636e-06
1.03241e-05
3.97694e-06
1.06157e-05
2.92709e-06
1.05991e-05
1.94478e-06
1.02798e-05
1.02426e-06
9.61132e-06
1.80064e-07
8.61638e-06
-7.09635e-07
7.28469e-06
-1.58271e-06
5.66849e-06
-2.60498e-06
3.92903e-06
-4.11645e-06
2.25066e-06
-7.74111e-06
6.56913e-07
-1.65966e-05
-2.27483e-05
-5.19144e-07
1.87362e-06
2.03716e-07
3.99509e-06
1.76786e-06
5.17225e-06
3.84142e-06
5.48021e-06
6.00713e-06
5.37359e-06
7.97796e-06
5.01346e-06
9.61728e-06
4.46475e-06
1.08835e-05
3.79018e-06
1.17589e-05
3.10146e-06
1.22598e-05
2.42624e-06
1.23894e-05
1.81516e-06
1.21675e-05
1.24617e-06
1.16183e-05
7.29244e-07
1.07121e-05
1.96602e-07
9.45356e-06
-3.24182e-07
7.91656e-06
-1.06798e-06
6.287e-06
-2.48688e-06
4.46678e-06
-5.92089e-06
2.05974e-06
-1.41896e-05
-2.06885e-05
-4.18157e-06
6.05519e-06
-3.64415e-06
3.45767e-06
-1.24382e-06
2.77192e-06
1.56263e-06
2.67377e-06
4.3112e-06
2.62503e-06
6.85479e-06
2.46986e-06
9.07971e-06
2.23984e-06
1.09254e-05
1.94447e-06
1.23733e-05
1.65356e-06
1.34503e-05
1.34926e-06
1.41734e-05
1.09209e-06
1.45873e-05
8.3225e-07
1.46796e-05
6.369e-07
1.44593e-05
4.16907e-07
1.39225e-05
2.12668e-07
1.3085e-05
-2.30467e-07
1.19347e-05
-1.33658e-06
1.01167e-05
-4.10291e-06
5.63958e-06
-9.71248e-06
-1.50489e-05
6.05519e-06
9.51286e-06
1.22848e-05
1.49585e-05
1.75836e-05
2.00534e-05
2.22933e-05
2.42377e-05
2.58913e-05
2.72406e-05
2.83327e-05
2.91649e-05
2.98018e-05
3.02187e-05
3.04314e-05
3.02009e-05
2.88643e-05
2.47614e-05
1.50489e-05
)
;

boundaryField
{
    movingWall
    {
        type            calculated;
        value           uniform 0;
    }
    fixedWalls
    {
        type            calculated;
        value           uniform 0;
    }
    frontAndBack
    {
        type            empty;
        value           nonuniform List<scalar> 0();
    }
}


// ************************************************************************* //
