/*--------------------------------*- C++ -*----------------------------------*\
| =========                 |                                                 |
| \\      /  F ield         | OpenFOAM: The Open Source CFD Toolbox           |
|  \\    /   O peration     | Version:  2212                                  |
|   \\  /    A nd           | Website:  www.openfoam.com                      |
|    \\/     M anipulation  |                                                 |
\*---------------------------------------------------------------------------*/
FoamFile
{
    version     2.0;
    format      ascii;
    arch        "LSB;label=32;scalar=64";
    class       volVectorField;
    location    "10.2";
    object      U;
}
// * * * * * * * * * * * * * * * * * * * * * * * * * * * * * * * * * * * * * //

dimensions      [0 1 -1 0 0 0 0];

internalField   nonuniform List<vector> 
400
(
(0.00168171 -0.00168382 0)
(0.00483854 -0.00189226 0)
(0.00659102 -0.00120073 0)
(0.00567469 -0.000575128 0)
(0.00157209 0.000183985 0)
(-0.00682926 0.00173938 0)
(-0.0206084 0.00478637 0)
(-0.0395414 0.0087361 0)
(-0.0608117 0.0112927 0)
(-0.0791383 0.0105125 0)
(-0.0898136 0.00677451 0)
(-0.0904641 0.00166894 0)
(-0.0802267 -0.00361655 0)
(-0.0599943 -0.00827504 0)
(-0.0335211 -0.0108472 0)
(-0.00529269 -0.00979533 0)
(0.0167239 -0.00477306 0)
(0.0244708 0.00277691 0)
(0.0161788 0.00647231 0)
(0.00431655 0.00471717 0)
(0.00172045 -0.00506525 0)
(0.00316257 -0.00403247 0)
(-0.000417193 0.00058776 0)
(-0.01133 0.00644172 0)
(-0.0314263 0.0140502 0)
(-0.0611505 0.0237742 0)
(-0.0968478 0.0330621 0)
(-0.131461 0.0370932 0)
(-0.158975 0.0335178 0)
(-0.176107 0.0234015 0)
(-0.181454 0.00910925 0)
(-0.175082 -0.00699032 0)
(-0.157563 -0.0231747 0)
(-0.129653 -0.0369148 0)
(-0.0936155 -0.0445664 0)
(-0.0521947 -0.0418394 0)
(-0.0114 -0.0263344 0)
(0.0168899 -0.00127894 0)
(0.0178723 0.0162241 0)
(0.00554225 0.0148202 0)
(-0.000239615 -0.00578047 0)
(-0.00538126 0.000801722 0)
(-0.0196097 0.0142995 0)
(-0.0445049 0.0312366 0)
(-0.0803429 0.0494467 0)
(-0.122208 0.0643222 0)
(-0.162354 0.0705483 0)
(-0.195278 0.0660302 0)
(-0.218871 0.052192 0)
(-0.232539 0.0315342 0)
(-0.236295 0.00641611 0)
(-0.23081 -0.0211143 0)
(-0.216395 -0.0488746 0)
(-0.192549 -0.073229 0)
(-0.15901 -0.0890289 0)
(-0.115744 -0.0892316 0)
(-0.0645641 -0.06703 0)
(-0.0138213 -0.0226645 0)
(0.00948159 0.017919 0)
(0.00415546 0.0235805 0)
(-0.00347203 0.000453223 0)
(-0.0175153 0.0172407 0)
(-0.0435177 0.0415021 0)
(-0.0796855 0.0681973 0)
(-0.122964 0.0911644 0)
(-0.16586 0.103853 0)
(-0.201933 0.102907 0)
(-0.229258 0.0896743 0)
(-0.248098 0.0673278 0)
(-0.259053 0.0385802 0)
(-0.262961 0.00531693 0)
(-0.260628 -0.0311187 0)
(-0.251994 -0.0684579 0)
(-0.236015 -0.103747 0)
(-0.210701 -0.131495 0)
(-0.173353 -0.142895 0)
(-0.121406 -0.125768 0)
(-0.0568458 -0.0708539 0)
(-0.000986912 0.00356677 0)
(0.0047423 0.0282411 0)
(-0.00666304 0.0147832 0)
(-0.0287314 0.0441128 0)
(-0.0632937 0.077099 0)
(-0.104468 0.108927 0)
(-0.147291 0.131218 0)
(-0.184594 0.138205 0)
(-0.212934 0.129511 0)
(-0.232719 0.108752 0)
(-0.245237 0.0798009 0)
(-0.252214 0.0454488 0)
(-0.255333 0.00723991 0)
(-0.255515 -0.0339998 0)
(-0.252535 -0.077087 0)
(-0.245852 -0.120692 0)
(-0.232656 -0.16083 0)
(-0.208331 -0.18904 0)
(-0.166828 -0.189989 0)
(-0.103453 -0.142884 0)
(-0.0221828 -0.0388538 0)
(0.00738212 0.0271019 0)
(-0.0085115 0.0348753 0)
(-0.0351802 0.0766441 0)
(-0.0730992 0.114962 0)
(-0.113275 0.147715 0)
(-0.150542 0.166049 0)
(-0.179407 0.165985 0)
(-0.198934 0.149774 0)
(-0.210682 0.122513 0)
(-0.216633 0.0885504 0)
(-0.219265 0.0508726 0)
(-0.220534 0.0109551 0)
(-0.221435 -0.0307599 0)
(-0.222166 -0.074725 0)
(-0.222839 -0.121297 0)
(-0.221265 -0.169245 0)
(-0.212362 -0.213077 0)
(-0.188041 -0.238605 0)
(-0.139698 -0.218554 0)
(-0.0628532 -0.118948 0)
(0.00584944 0.0142039 0)
(-0.00829385 0.0570099 0)
(-0.0353462 0.110021 0)
(-0.0718456 0.150511 0)
(-0.107091 0.181206 0)
(-0.136729 0.193901 0)
(-0.157138 0.186506 0)
(-0.169051 0.163341 0)
(-0.174591 0.130555 0)
(-0.176166 0.0929077 0)
(-0.176266 0.0534125 0)
(-0.17638 0.0133143 0)
(-0.17718 -0.0273128 0)
(-0.179212 -0.0695821 0)
(-0.18302 -0.114736 0)
(-0.187967 -0.16387 0)
(-0.190436 -0.21584 0)
(-0.182546 -0.261691 0)
(-0.154295 -0.275208 0)
(-0.0994113 -0.205929 0)
(-0.00890852 -0.0146252 0)
(-0.00613673 0.0776087 0)
(-0.0297977 0.140576 0)
(-0.0614377 0.181252 0)
(-0.0899128 0.208371 0)
(-0.111926 0.214962 0)
(-0.125466 0.200635 0)
(-0.132158 0.171401 0)
(-0.134311 0.134237 0)
(-0.134375 0.0941197 0)
(-0.134277 0.0537537 0)
(-0.134684 0.0138634 0)
(-0.135777 -0.0258915 0)
(-0.138009 -0.0664895 0)
(-0.142072 -0.109109 0)
(-0.148583 -0.155698 0)
(-0.156246 -0.208614 0)
(-0.159101 -0.265939 0)
(-0.14677 -0.308173 0)
(-0.112269 -0.277243 0)
(-0.0309697 -0.0753452 0)
(-0.00273084 0.093631 0)
(-0.0204236 0.165672 0)
(-0.0451635 0.205648 0)
(-0.0663631 0.228643 0)
(-0.0816351 0.229606 0)
(-0.0901283 0.209619 0)
(-0.0937626 0.175866 0)
(-0.0946765 0.135827 0)
(-0.0949555 0.0944791 0)
(-0.0957521 0.0540351 0)
(-0.0971026 0.0145942 0)
(-0.0989126 -0.0245877 0)
(-0.101349 -0.0642406 0)
(-0.104915 -0.105014 0)
(-0.11076 -0.148497 0)
(-0.11962 -0.198618 0)
(-0.128371 -0.259846 0)
(-0.126542 -0.323507 0)
(-0.107494 -0.33481 0)
(-0.0373547 -0.163463 0)
(0.00121934 0.10278 0)
(-0.00894618 0.183517 0)
(-0.0256523 0.223206 0)
(-0.0396545 0.24283 0)
(-0.0491364 0.239596 0)
(-0.054011 0.215622 0)
(-0.0559821 0.178866 0)
(-0.0566963 0.137167 0)
(-0.0576582 0.0954109 0)
(-0.059401 0.055275 0)
(-0.0616944 0.0163105 0)
(-0.0643949 -0.0224942 0)
(-0.0674936 -0.061745 0)
(-0.0711686 -0.101641 0)
(-0.076352 -0.142849 0)
(-0.0846136 -0.188993 0)
(-0.0960802 -0.248414 0)
(-0.100662 -0.324375 0)
(-0.095182 -0.372278 0)
(-0.0309262 -0.242618 0)
(0.00511911 0.103947 0)
(0.00295745 0.193119 0)
(-0.00539161 0.233703 0)
(-0.01251 0.250865 0)
(-0.0169019 0.244781 0)
(-0.0187897 0.218564 0)
(-0.0194787 0.180501 0)
(-0.0200076 0.138424 0)
(-0.0213064 0.096966 0)
(-0.0235426 0.0574258 0)
(-0.0264316 0.0190826 0)
(-0.0299152 -0.019169 0)
(-0.0340097 -0.0579833 0)
(-0.0386535 -0.0974113 0)
(-0.044392 -0.13737 0)
(-0.0524518 -0.180241 0)
(-0.0657682 -0.235715 0)
(-0.0742263 -0.318154 0)
(-0.0812032 -0.396784 0)
(-0.0229434 -0.30718 0)
(0.00845895 0.0974719 0)
(0.0142228 0.194113 0)
(0.0141059 0.237226 0)
(0.0137114 0.253646 0)
(0.0143343 0.246568 0)
(0.0155315 0.21986 0)
(0.0163913 0.18181 0)
(0.0164451 0.140095 0)
(0.0153074 0.0991538 0)
(0.0130303 0.0602259 0)
(0.00986254 0.0226268 0)
(0.00575421 -0.0147529 0)
(0.00056228 -0.052698 0)
(-0.0055636 -0.0913043 0)
(-0.0130318 -0.1302 0)
(-0.0219789 -0.170382 0)
(-0.0377196 -0.22076 0)
(-0.0487299 -0.304516 0)
(-0.0679047 -0.408528 0)
(-0.0144592 -0.360062 0)
(0.0103308 0.0844914 0)
(0.0234224 0.186516 0)
(0.0310873 0.23335 0)
(0.0370179 0.250191 0)
(0.0426807 0.243353 0)
(0.0476365 0.217568 0)
(0.0510746 0.180805 0)
(0.0527512 0.140398 0)
(0.0526204 0.100634 0)
(0.0508917 0.0628236 0)
(0.0477822 0.0264573 0)
(0.0431742 -0.00952095 0)
(0.0369001 -0.0460024 0)
(0.029084 -0.0831415 0)
(0.0189279 -0.12057 0)
(0.00760121 -0.158514 0)
(-0.0118145 -0.204473 0)
(-0.0242368 -0.286518 0)
(-0.0558429 -0.411034 0)
(-0.0061372 -0.401909 0)
(0.00987953 0.0672382 0)
(0.0290345 0.170706 0)
(0.0443628 0.222257 0)
(0.0569074 0.241356 0)
(0.0682033 0.23643 0)
(0.0778926 0.213068 0)
(0.085116 0.178775 0)
(0.0895728 0.140433 0)
(0.0913393 0.10227 0)
(0.0907154 0.0658317 0)
(0.0880306 0.0309798 0)
(0.0829813 -0.0033024 0)
(0.0754661 -0.0375487 0)
(0.0657728 -0.072334 0)
(0.0525191 -0.107462 0)
(0.0375836 -0.142813 0)
(0.013139 -0.1843 0)
(8.55637e-05 -0.263278 0)
(-0.0447949 -0.406733 0)
(0.00276644 -0.436285 0)
(0.00693084 0.049398 0)
(0.0293697 0.14898 0)
(0.051122 0.203665 0)
(0.0700042 0.224587 0)
(0.0874838 0.221731 0)
(0.103182 0.201573 0)
(0.115855 0.170977 0)
(0.124823 0.136085 0)
(0.129997 0.100886 0)
(0.13162 0.0670548 0)
(0.129957 0.0348439 0)
(0.125033 0.00342866 0)
(0.116401 -0.0274712 0)
(0.104667 -0.0587134 0)
(0.0875703 -0.0903401 0)
(0.068377 -0.122961 0)
(0.0383082 -0.160881 0)
(0.0238669 -0.237178 0)
(-0.0344363 -0.398979 0)
(0.0134763 -0.464441 0)
(0.00238748 0.034626 0)
(0.0236452 0.123907 0)
(0.0509677 0.179967 0)
(0.0767049 0.20297 0)
(0.101375 0.202661 0)
(0.124263 0.18626 0)
(0.143722 0.160202 0)
(0.158535 0.129769 0)
(0.168283 0.0985747 0)
(0.173176 0.068306 0)
(0.173152 0.039561 0)
(0.168924 0.011934 0)
(0.159086 -0.0149169 0)
(0.145351 -0.0417253 0)
(0.124043 -0.0687709 0)
(0.100498 -0.097575 0)
(0.0646372 -0.132731 0)
(0.0470147 -0.207472 0)
(-0.0227004 -0.387093 0)
(0.0285348 -0.485565 0)
(-0.00342636 0.0286119 0)
(0.0100749 0.101504 0)
(0.0371196 0.148708 0)
(0.0689905 0.169478 0)
(0.101891 0.170701 0)
(0.133617 0.15841 0)
(0.16162 0.137974 0)
(0.184171 0.113568 0)
(0.200224 0.0882786 0)
(0.210152 0.063634 0)
(0.213078 0.0403801 0)
(0.210825 0.0183997 0)
(0.200559 -0.0026823 0)
(0.185924 -0.0233222 0)
(0.161104 -0.0439906 0)
(0.13448 -0.067754 0)
(0.0929415 -0.101706 0)
(0.0698829 -0.180023 0)
(-0.00436386 -0.370058 0)
(0.0521631 -0.491644 0)
(-0.0140128 0.0185157 0)
(-0.00751614 0.0881757 0)
(0.0192233 0.124199 0)
(0.0564624 0.137328 0)
(0.0976229 0.136922 0)
(0.138012 0.12774 0)
(0.174272 0.113082 0)
(0.204123 0.0953023 0)
(0.226023 0.0768276 0)
(0.24112 0.0586764 0)
(0.247157 0.0418014 0)
(0.248073 0.0261049 0)
(0.238732 0.0117389 0)
(0.226913 -0.00205411 0)
(0.201909 -0.0160958 0)
(0.177918 -0.0350328 0)
(0.133565 -0.0678111 0)
(0.107845 -0.146006 0)
(0.0374747 -0.32612 0)
(0.0923685 -0.455871 0)
(-0.10602 0.0824169 0)
(-0.0777606 0.0689899 0)
(-0.0485678 0.0733711 0)
(0.0037837 0.0778925 0)
(0.0573032 0.0782274 0)
(0.11004 0.0739636 0)
(0.157213 0.0666282 0)
(0.19958 0.057223 0)
(0.231695 0.0475461 0)
(0.25985 0.0378884 0)
(0.275579 0.0292199 0)
(0.290734 0.0212326 0)
(0.291085 0.014474 0)
(0.295194 0.00808992 0)
(0.278888 0.00112115 0)
(0.271669 -0.0100163 0)
(0.232354 -0.0355708 0)
(0.218146 -0.0954203 0)
(0.150208 -0.229723 0)
(0.170672 -0.341455 0)
(0.129969 0.103744 0)
(0.158319 0.0752273 0)
(0.212164 0.0532269 0)
(0.270672 0.0416222 0)
(0.323249 0.0359128 0)
(0.375692 0.0319485 0)
(0.420289 0.0289165 0)
(0.46561 0.025581 0)
(0.498708 0.0229029 0)
(0.533959 0.0197104 0)
(0.553398 0.0175474 0)
(0.579208 0.0146095 0)
(0.585345 0.0131645 0)
(0.603684 0.0103454 0)
(0.595102 0.00938299 0)
(0.603602 0.00499934 0)
(0.567792 8.88539e-05 0)
(0.547612 -0.0183161 0)
(0.43569 -0.0504144 0)
(0.336753 -0.101386 0)
)
;

boundaryField
{
    movingWall
    {
        type            fixedValue;
        value           uniform (1 0 0);
    }
    fixedWalls
    {
        type            noSlip;
    }
    frontAndBack
    {
        type            empty;
    }
}


// ************************************************************************* //
