/*--------------------------------*- C++ -*----------------------------------*\
| =========                 |                                                 |
| \\      /  F ield         | OpenFOAM: The Open Source CFD Toolbox           |
|  \\    /   O peration     | Version:  2212                                  |
|   \\  /    A nd           | Website:  www.openfoam.com                      |
|    \\/     M anipulation  |                                                 |
\*---------------------------------------------------------------------------*/
FoamFile
{
    version     2.0;
    format      ascii;
    arch        "LSB;label=32;scalar=64";
    class       surfaceScalarField;
    location    "10.4";
    object      phi;
}
// * * * * * * * * * * * * * * * * * * * * * * * * * * * * * * * * * * * * * //

dimensions      [0 3 -1 0 0 0 0];

oriented        oriented;

internalField   nonuniform List<scalar> 
760
(
1.56075e-07
-1.56132e-07
2.93622e-07
-1.37547e-07
3.09986e-07
-1.63641e-08
1.83677e-07
1.26309e-07
-1.20311e-07
3.03988e-07
-6.65928e-07
5.45618e-07
-1.48527e-06
8.19339e-07
-2.49085e-06
1.00559e-06
-3.48033e-06
9.89479e-07
-4.22032e-06
7.39993e-07
-4.54395e-06
3.23629e-07
-4.35364e-06
-1.90317e-07
-3.59375e-06
-7.59883e-07
-2.37899e-06
-1.21476e-06
-9.40031e-07
-1.43896e-06
3.47734e-07
-1.28776e-06
1.08993e-06
-7.4219e-07
1.03307e-06
5.68513e-08
4.60994e-07
5.72078e-07
4.60992e-07
1.25043e-07
-2.81174e-07
7.46009e-08
-8.71055e-08
-2.97033e-07
3.5527e-07
-1.07891e-06
9.08189e-07
-2.31594e-06
1.54101e-06
-3.9274e-06
2.15708e-06
-5.6623e-06
2.55423e-06
-7.20702e-06
2.55031e-06
-8.33692e-06
2.11938e-06
-8.94226e-06
1.34534e-06
-8.97619e-06
3.57554e-07
-8.41619e-06
-7.50315e-07
-7.29362e-06
-1.88245e-06
-5.64203e-06
-2.86635e-06
-3.60582e-06
-3.47517e-06
-1.49024e-06
-3.40334e-06
1.78716e-07
-2.41115e-06
8.58979e-07
-6.2341e-07
5.25707e-07
9.05354e-07
9.86698e-07
-1.27604e-07
-1.5357e-07
-6.33937e-07
4.19228e-07
-1.62494e-06
1.34627e-06
-3.14149e-06
2.42474e-06
-5.05754e-06
3.45707e-06
-7.07339e-06
4.17293e-06
-8.87347e-06
4.35432e-06
-1.02777e-05
3.95456e-06
-1.12345e-05
3.07615e-06
-1.17361e-05
1.84689e-06
-1.17301e-05
3.516e-07
-1.12712e-05
-1.20923e-06
-1.03385e-05
-2.81515e-06
-8.87784e-06
-4.327e-06
-6.86958e-06
-5.48343e-06
-4.40322e-06
-5.8697e-06
-1.87875e-06
-4.93563e-06
-8.64038e-08
-2.41575e-06
2.9469e-07
5.24262e-07
1.28139e-06
-5.00533e-07
3.46963e-07
-1.56001e-06
1.4787e-06
-3.11953e-06
2.9058e-06
-5.08144e-06
4.38665e-06
-7.18533e-06
5.56096e-06
-9.12334e-06
6.11093e-06
-1.06932e-05
5.92416e-06
-1.18524e-05
5.11376e-06
-1.2629e-05
3.85277e-06
-1.30577e-05
2.27554e-06
-1.31227e-05
4.16648e-07
-1.28832e-05
-1.44874e-06
-1.23004e-05
-3.39797e-06
-1.12725e-05
-5.3549e-06
-9.66878e-06
-7.08713e-06
-7.36465e-06
-8.17383e-06
-4.39877e-06
-7.9015e-06
-1.37807e-06
-5.43646e-06
1.20733e-07
-9.74541e-07
1.40212e-06
-8.61959e-07
1.20892e-06
-2.36175e-06
2.97849e-06
-4.23286e-06
4.77691e-06
-6.28025e-06
6.43403e-06
-8.22268e-06
7.50339e-06
-9.83743e-06
7.72569e-06
-1.10478e-05
7.13458e-06
-1.18805e-05
5.94638e-06
-1.23971e-05
4.36938e-06
-1.26703e-05
2.54874e-06
-1.27909e-05
5.37234e-07
-1.27452e-05
-1.49438e-06
-1.25246e-05
-3.61863e-06
-1.205e-05
-5.82949e-06
-1.11353e-05
-8.00183e-06
-9.49251e-06
-9.81658e-06
-6.82225e-06
-1.05718e-05
-3.22301e-06
-9.0357e-06
-2.6117e-07
-3.93638e-06
1.14095e-06
-1.08712e-06
2.29604e-06
-2.78469e-06
4.67606e-06
-4.67853e-06
6.67074e-06
-6.53663e-06
8.29214e-06
-8.13465e-06
9.10141e-06
-9.34158e-06
8.93261e-06
-1.01534e-05
7.94642e-06
-1.06353e-05
6.42825e-06
-1.08774e-05
4.61147e-06
-1.09794e-05
2.65071e-06
-1.10626e-05
6.2044e-07
-1.11131e-05
-1.44384e-06
-1.11472e-05
-3.5845e-06
-1.11361e-05
-5.84064e-06
-1.09264e-05
-8.21155e-06
-1.01911e-05
-1.05518e-05
-8.43607e-06
-1.23268e-05
-5.24505e-06
-1.22267e-05
-1.15867e-06
-8.02276e-06
-1.77192e-08
-1.11124e-06
3.40728e-06
-2.75938e-06
6.3242e-06
-4.4574e-06
8.36876e-06
-5.99348e-06
9.82822e-06
-7.20751e-06
1.03154e-05
-8.0372e-06
9.7623e-06
-8.5203e-06
8.42953e-06
-8.74381e-06
6.65176e-06
-8.81118e-06
4.67884e-06
-8.8191e-06
2.65863e-06
-8.84965e-06
6.50991e-07
-8.921e-06
-1.37249e-06
-9.0531e-06
-3.4524e-06
-9.25763e-06
-5.6361e-06
-9.47862e-06
-7.99057e-06
-9.4853e-06
-1.05451e-05
-8.75901e-06
-1.30531e-05
-6.54124e-06
-1.44445e-05
-2.42496e-06
-1.2139e-05
-2.44268e-06
-9.36623e-07
4.34391e-06
-2.34899e-06
7.73656e-06
-3.73695e-06
9.75673e-06
-4.91702e-06
1.10083e-05
-5.78824e-06
1.11867e-05
-6.33383e-06
1.03079e-05
-6.61101e-06
8.7067e-06
-6.71075e-06
6.7515e-06
-6.72889e-06
4.69698e-06
-6.7381e-06
2.66785e-06
-6.77373e-06
6.86617e-07
-6.85254e-06
-1.29368e-06
-6.99545e-06
-3.30948e-06
-7.23312e-06
-5.39844e-06
-7.58315e-06
-7.64054e-06
-7.95557e-06
-1.01727e-05
-7.94135e-06
-1.30673e-05
-6.72254e-06
-1.56633e-05
-3.58984e-06
-1.52718e-05
-6.03252e-06
-6.26057e-07
4.96996e-06
-1.68974e-06
8.80024e-06
-2.72399e-06
1.0791e-05
-3.5642e-06
1.18485e-05
-4.15486e-06
1.17773e-05
-4.50618e-06
1.06592e-05
-4.67709e-06
8.87761e-06
-4.74591e-06
6.82032e-06
-4.78473e-06
4.7358e-06
-4.83676e-06
2.71988e-06
-4.9118e-06
7.61655e-07
-5.016e-06
-1.18947e-06
-5.15913e-06
-3.16636e-06
-5.36969e-06
-5.18788e-06
-5.70286e-06
-7.30736e-06
-6.17285e-06
-9.70271e-06
-6.56298e-06
-1.26772e-05
-6.13291e-06
-1.60934e-05
-3.92708e-06
-1.74776e-05
-9.9596e-06
-2.33269e-07
5.20323e-06
-8.95019e-07
9.46199e-06
-1.56758e-06
1.14635e-05
-2.09812e-06
1.2379e-05
-2.45901e-06
1.21382e-05
-2.67455e-06
1.08748e-05
-2.79294e-06
8.996e-06
-2.86738e-06
6.89476e-06
-2.94231e-06
4.81073e-06
-3.03954e-06
2.81711e-06
-3.16178e-06
8.83892e-07
-3.30849e-06
-1.04276e-06
-3.4797e-06
-2.99515e-06
-3.68746e-06
-4.98012e-06
-3.98208e-06
-7.01273e-06
-4.44604e-06
-9.23875e-06
-5.02802e-06
-1.20952e-05
-5.12734e-06
-1.5994e-05
-3.56074e-06
-1.90442e-05
-1.35203e-05
1.63763e-07
5.03947e-06
-7.04565e-08
9.69621e-06
-4.03929e-07
1.1797e-05
-6.55464e-07
1.26306e-05
-8.10998e-07
1.22938e-05
-9.01671e-07
1.09654e-05
-9.6684e-07
9.06117e-06
-1.03836e-06
6.96628e-06
-1.13275e-06
4.90513e-06
-1.25779e-06
2.94215e-06
-1.41604e-06
1.04214e-06
-1.60963e-06
-8.4916e-07
-1.83699e-06
-2.76779e-06
-2.09571e-06
-4.7214e-06
-2.41296e-06
-6.69548e-06
-2.88011e-06
-8.7716e-06
-3.56274e-06
-1.14126e-05
-4.02714e-06
-1.55296e-05
-3.02686e-06
-2.00445e-05
-1.65472e-05
5.0248e-07
4.53699e-06
7.00719e-07
9.49797e-06
7.44119e-07
1.17536e-05
7.7987e-07
1.25948e-05
8.24832e-07
1.22488e-05
8.53705e-07
1.09366e-05
8.46855e-07
9.06801e-06
7.961e-07
7.01703e-06
7.02233e-07
4.999e-06
5.66945e-07
3.07744e-06
3.84998e-07
1.22409e-06
1.50201e-07
-6.14363e-07
-1.38981e-07
-2.47861e-06
-4.89189e-07
-4.37119e-06
-9.0393e-07
-6.28074e-06
-1.42655e-06
-8.24898e-06
-2.20456e-06
-1.06346e-05
-2.95402e-06
-1.47802e-05
-2.46097e-06
-2.05375e-05
-1.90082e-05
7.59783e-07
3.77721e-06
1.35957e-06
8.89818e-06
1.75406e-06
1.13591e-05
2.08513e-06
1.22637e-05
2.35968e-06
1.19743e-05
2.54759e-06
1.07486e-05
2.64079e-06
8.97481e-06
2.64999e-06
7.00784e-06
2.58913e-06
5.05985e-06
2.46454e-06
3.20203e-06
2.26855e-06
1.42009e-06
1.98706e-06
-3.32876e-07
1.62077e-06
-2.11232e-06
1.16478e-06
-3.91521e-06
6.14901e-07
-5.73086e-06
-7.9961e-08
-7.55412e-06
-9.53709e-07
-9.76085e-06
-1.91684e-06
-1.3817e-05
-1.92415e-06
-2.05302e-05
-2.09323e-05
8.75542e-07
2.90166e-06
1.81904e-06
7.95469e-06
2.5641e-06
1.06141e-05
3.20819e-06
1.16197e-05
3.75879e-06
1.14237e-05
4.17271e-06
1.03347e-05
4.43414e-06
8.71338e-06
4.55703e-06
6.88495e-06
4.56416e-06
5.05272e-06
4.47048e-06
3.29571e-06
4.27376e-06
1.61681e-06
3.9413e-06
-4.23305e-10
3.49395e-06
-1.66496e-06
2.90606e-06
-3.32732e-06
2.17894e-06
-5.00373e-06
1.33179e-06
-6.70697e-06
2.74314e-07
-8.70338e-06
-9.53168e-07
-1.25896e-05
-1.42489e-06
-2.00585e-05
-2.23572e-05
8.11423e-07
2.09024e-06
1.96501e-06
6.8011e-06
3.01267e-06
9.5664e-06
3.99073e-06
1.06416e-05
4.87232e-06
1.05421e-05
5.59142e-06
9.61562e-06
6.10896e-06
8.19584e-06
6.42787e-06
6.56604e-06
6.56883e-06
4.91176e-06
6.54965e-06
3.3149e-06
6.36841e-06
1.79805e-06
6.02244e-06
3.45554e-07
5.47864e-06
-1.12116e-06
4.74456e-06
-2.59324e-06
3.81239e-06
-4.07157e-06
2.71122e-06
-5.60579e-06
1.40169e-06
-7.39385e-06
-1.48938e-07
-1.10389e-05
-9.09047e-07
-1.92984e-05
-2.32663e-05
5.81446e-07
1.50879e-06
1.77025e-06
5.61229e-06
3.11542e-06
8.22123e-06
4.47311e-06
9.28389e-06
5.74584e-06
9.26934e-06
6.83501e-06
8.52646e-06
7.6752e-06
7.35566e-06
8.2537e-06
5.98754e-06
8.58275e-06
4.58271e-06
8.6789e-06
3.21874e-06
8.54875e-06
1.9282e-06
8.18939e-06
7.0492e-07
7.55666e-06
-4.8843e-07
6.66804e-06
-1.70461e-06
5.51092e-06
-2.91445e-06
4.12635e-06
-4.22123e-06
2.58846e-06
-5.85596e-06
9.69053e-07
-9.41952e-06
-1.38933e-07
-1.81904e-05
-2.34052e-05
1.54328e-07
1.35447e-06
1.04867e-06
4.71795e-06
2.53349e-06
6.73642e-06
4.26358e-06
7.5538e-06
5.99358e-06
7.53934e-06
7.53571e-06
6.98433e-06
8.78727e-06
6.10409e-06
9.71843e-06
5.05639e-06
1.03242e-05
3.97696e-06
1.06158e-05
2.92711e-06
1.05992e-05
1.94479e-06
1.02799e-05
1.02425e-06
9.61141e-06
1.80048e-07
8.61646e-06
-7.09663e-07
7.28475e-06
-1.58274e-06
5.66854e-06
-2.60501e-06
3.92906e-06
-4.11648e-06
2.25068e-06
-7.74113e-06
6.5692e-07
-1.65966e-05
-2.27483e-05
-5.19147e-07
1.87361e-06
2.03721e-07
3.99508e-06
1.76788e-06
5.17226e-06
3.84145e-06
5.48023e-06
6.00718e-06
5.37361e-06
7.97802e-06
5.01348e-06
9.61735e-06
4.46477e-06
1.08835e-05
3.7902e-06
1.1759e-05
3.10147e-06
1.22599e-05
2.42625e-06
1.23895e-05
1.81516e-06
1.21676e-05
1.24617e-06
1.16184e-05
7.29234e-07
1.07122e-05
1.96585e-07
9.45362e-06
-3.24201e-07
7.91661e-06
-1.068e-06
6.28702e-06
-2.4869e-06
4.46679e-06
-5.9209e-06
2.05975e-06
-1.41896e-05
-2.06885e-05
-4.18157e-06
6.05519e-06
-3.64416e-06
3.45767e-06
-1.24381e-06
2.77192e-06
1.56265e-06
2.67377e-06
4.31123e-06
2.62503e-06
6.85484e-06
2.46987e-06
9.07976e-06
2.23984e-06
1.09255e-05
1.94448e-06
1.23734e-05
1.65357e-06
1.34504e-05
1.34926e-06
1.41734e-05
1.09209e-06
1.45874e-05
8.32249e-07
1.46797e-05
6.36896e-07
1.44594e-05
4.16902e-07
1.39225e-05
2.12661e-07
1.3085e-05
-2.30476e-07
1.19347e-05
-1.33659e-06
1.01167e-05
-4.10291e-06
5.63959e-06
-9.71247e-06
-1.50489e-05
6.05519e-06
9.51285e-06
1.22848e-05
1.49585e-05
1.75836e-05
2.00534e-05
2.22933e-05
2.42378e-05
2.58913e-05
2.72406e-05
2.83327e-05
2.91649e-05
2.98018e-05
3.02187e-05
3.04314e-05
3.02009e-05
2.88643e-05
2.47614e-05
1.50489e-05
)
;

boundaryField
{
    movingWall
    {
        type            calculated;
        value           uniform 0;
    }
    fixedWalls
    {
        type            calculated;
        value           uniform 0;
    }
    frontAndBack
    {
        type            empty;
        value           nonuniform List<scalar> 0();
    }
}


// ************************************************************************* //
