/*--------------------------------*- C++ -*----------------------------------*\
| =========                 |                                                 |
| \\      /  F ield         | OpenFOAM: The Open Source CFD Toolbox           |
|  \\    /   O peration     | Version:  2212                                  |
|   \\  /    A nd           | Website:  www.openfoam.com                      |
|    \\/     M anipulation  |                                                 |
\*---------------------------------------------------------------------------*/
FoamFile
{
    version     2.0;
    format      ascii;
    arch        "LSB;label=32;scalar=64";
    class       volVectorField;
    location    "10.4";
    object      U;
}
// * * * * * * * * * * * * * * * * * * * * * * * * * * * * * * * * * * * * * //

dimensions      [0 1 -1 0 0 0 0];

internalField   nonuniform List<vector> 
400
(
(0.00168171 -0.00168385 0)
(0.00483856 -0.00189229 0)
(0.00659107 -0.00120074 0)
(0.00567476 -0.000575133 0)
(0.00157215 0.000183982 0)
(-0.00682923 0.00173938 0)
(-0.0206084 0.00478639 0)
(-0.0395415 0.00873614 0)
(-0.0608119 0.0112928 0)
(-0.0791386 0.0105126 0)
(-0.0898138 0.00677451 0)
(-0.0904643 0.00166892 0)
(-0.0802268 -0.00361659 0)
(-0.0599943 -0.00827508 0)
(-0.0335209 -0.0108473 0)
(-0.00529249 -0.00979534 0)
(0.0167241 -0.00477303 0)
(0.024471 0.00277694 0)
(0.0161789 0.00647232 0)
(0.00431657 0.00471717 0)
(0.00172046 -0.00506532 0)
(0.00316262 -0.00403254 0)
(-0.000417119 0.000587732 0)
(-0.01133 0.00644172 0)
(-0.0314263 0.0140502 0)
(-0.0611506 0.0237743 0)
(-0.0968481 0.0330623 0)
(-0.131462 0.0370934 0)
(-0.158975 0.0335179 0)
(-0.176107 0.0234016 0)
(-0.181454 0.00910921 0)
(-0.175082 -0.00699042 0)
(-0.157564 -0.0231749 0)
(-0.129653 -0.036915 0)
(-0.0936155 -0.0445666 0)
(-0.0521946 -0.0418394 0)
(-0.0113998 -0.0263344 0)
(0.0168901 -0.00127883 0)
(0.0178725 0.0162242 0)
(0.00554228 0.0148202 0)
(-0.000239597 -0.00578057 0)
(-0.00538123 0.000801633 0)
(-0.0196097 0.0142995 0)
(-0.0445049 0.0312367 0)
(-0.0803431 0.0494469 0)
(-0.122208 0.0643225 0)
(-0.162355 0.0705486 0)
(-0.195278 0.0660304 0)
(-0.218872 0.0521921 0)
(-0.23254 0.0315342 0)
(-0.236296 0.00641602 0)
(-0.23081 -0.0211145 0)
(-0.216396 -0.0488749 0)
(-0.192549 -0.0732293 0)
(-0.15901 -0.0890292 0)
(-0.115745 -0.0892317 0)
(-0.0645641 -0.06703 0)
(-0.0138212 -0.0226644 0)
(0.00948164 0.0179191 0)
(0.00415547 0.0235806 0)
(-0.00347203 0.000453114 0)
(-0.0175154 0.0172407 0)
(-0.0435178 0.0415022 0)
(-0.0796857 0.0681976 0)
(-0.122965 0.0911648 0)
(-0.165861 0.103853 0)
(-0.201934 0.102907 0)
(-0.229259 0.0896746 0)
(-0.248099 0.067328 0)
(-0.259054 0.0385802 0)
(-0.262962 0.00531681 0)
(-0.260629 -0.031119 0)
(-0.251995 -0.0684582 0)
(-0.236015 -0.103748 0)
(-0.210702 -0.131496 0)
(-0.173353 -0.142895 0)
(-0.121406 -0.125768 0)
(-0.0568458 -0.0708539 0)
(-0.000986871 0.00356697 0)
(0.0047423 0.0282413 0)
(-0.00666307 0.0147832 0)
(-0.0287315 0.0441128 0)
(-0.063294 0.0770993 0)
(-0.104469 0.108928 0)
(-0.147292 0.131218 0)
(-0.184594 0.138206 0)
(-0.212935 0.129512 0)
(-0.23272 0.108753 0)
(-0.245239 0.0798011 0)
(-0.252215 0.0454488 0)
(-0.255335 0.00723976 0)
(-0.255516 -0.0340002 0)
(-0.252536 -0.0770875 0)
(-0.245853 -0.120693 0)
(-0.232656 -0.16083 0)
(-0.208332 -0.189041 0)
(-0.166828 -0.189989 0)
(-0.103454 -0.142884 0)
(-0.0221828 -0.0388537 0)
(0.00738215 0.0271021 0)
(-0.00851154 0.0348753 0)
(-0.0351804 0.0766443 0)
(-0.0730995 0.114963 0)
(-0.113275 0.147716 0)
(-0.150542 0.16605 0)
(-0.179408 0.165986 0)
(-0.198936 0.149775 0)
(-0.210683 0.122514 0)
(-0.216634 0.0885508 0)
(-0.219266 0.0508727 0)
(-0.220536 0.0109549 0)
(-0.221436 -0.0307603 0)
(-0.222168 -0.0747255 0)
(-0.22284 -0.121298 0)
(-0.221266 -0.169245 0)
(-0.212362 -0.213078 0)
(-0.188041 -0.238606 0)
(-0.139698 -0.218555 0)
(-0.0628534 -0.118948 0)
(0.0058495 0.014204 0)
(-0.00829391 0.05701 0)
(-0.0353464 0.110021 0)
(-0.071846 0.150512 0)
(-0.107091 0.181207 0)
(-0.13673 0.193902 0)
(-0.157139 0.186507 0)
(-0.169052 0.163342 0)
(-0.174592 0.130556 0)
(-0.176167 0.0929081 0)
(-0.176267 0.0534127 0)
(-0.176381 0.0133142 0)
(-0.177182 -0.0273133 0)
(-0.179214 -0.0695829 0)
(-0.183021 -0.114737 0)
(-0.187968 -0.163871 0)
(-0.190437 -0.21584 0)
(-0.182547 -0.261692 0)
(-0.154295 -0.275208 0)
(-0.0994117 -0.205929 0)
(-0.00890853 -0.0146251 0)
(-0.00613678 0.077609 0)
(-0.0297979 0.140577 0)
(-0.0614381 0.181253 0)
(-0.0899134 0.208372 0)
(-0.111927 0.214963 0)
(-0.125466 0.200635 0)
(-0.132159 0.171402 0)
(-0.134313 0.134237 0)
(-0.134377 0.0941203 0)
(-0.134278 0.053754 0)
(-0.134685 0.0138633 0)
(-0.135778 -0.0258919 0)
(-0.13801 -0.0664904 0)
(-0.142073 -0.10911 0)
(-0.148584 -0.1557 0)
(-0.156247 -0.208615 0)
(-0.159101 -0.26594 0)
(-0.14677 -0.308174 0)
(-0.11227 -0.277244 0)
(-0.0309698 -0.0753453 0)
(-0.00273087 0.0936314 0)
(-0.0204237 0.165673 0)
(-0.0451638 0.205649 0)
(-0.0663635 0.228644 0)
(-0.0816357 0.229607 0)
(-0.0901289 0.20962 0)
(-0.0937634 0.175867 0)
(-0.0946775 0.135828 0)
(-0.0949567 0.0944799 0)
(-0.0957535 0.0540356 0)
(-0.097104 0.0145942 0)
(-0.098914 -0.0245882 0)
(-0.10135 -0.0642415 0)
(-0.104916 -0.105015 0)
(-0.110761 -0.148498 0)
(-0.11962 -0.198619 0)
(-0.128372 -0.259847 0)
(-0.126542 -0.323508 0)
(-0.107494 -0.334811 0)
(-0.0373549 -0.163463 0)
(0.00121933 0.10278 0)
(-0.00894627 0.183518 0)
(-0.0256525 0.223207 0)
(-0.0396548 0.242831 0)
(-0.0491368 0.239598 0)
(-0.0540115 0.215623 0)
(-0.0559827 0.178867 0)
(-0.056697 0.137168 0)
(-0.0576591 0.0954118 0)
(-0.059402 0.0552756 0)
(-0.0616954 0.0163106 0)
(-0.0643959 -0.0224947 0)
(-0.0674946 -0.061746 0)
(-0.0711696 -0.101642 0)
(-0.0763529 -0.142851 0)
(-0.0846142 -0.188995 0)
(-0.0960807 -0.248415 0)
(-0.100662 -0.324376 0)
(-0.0951822 -0.372279 0)
(-0.0309263 -0.242619 0)
(0.00511914 0.103947 0)
(0.00295744 0.19312 0)
(-0.00539168 0.233704 0)
(-0.0125101 0.250866 0)
(-0.0169021 0.244782 0)
(-0.01879 0.218565 0)
(-0.019479 0.180502 0)
(-0.020008 0.138426 0)
(-0.0213068 0.096967 0)
(-0.023543 0.0574265 0)
(-0.0264321 0.0190827 0)
(-0.0299157 -0.0191694 0)
(-0.0340103 -0.0579843 0)
(-0.038654 -0.0974127 0)
(-0.0443925 -0.137371 0)
(-0.0524522 -0.180243 0)
(-0.0657685 -0.235716 0)
(-0.0742264 -0.318156 0)
(-0.0812032 -0.396785 0)
(-0.0229434 -0.30718 0)
(0.00845902 0.0974724 0)
(0.0142229 0.194114 0)
(0.0141059 0.237227 0)
(0.0137115 0.253648 0)
(0.0143344 0.246569 0)
(0.0155316 0.219861 0)
(0.0163913 0.181811 0)
(0.0164451 0.140096 0)
(0.0153074 0.0991548 0)
(0.0130304 0.0602266 0)
(0.00986262 0.022627 0)
(0.00575426 -0.0147533 0)
(0.000562285 -0.0526989 0)
(-0.00556365 -0.0913057 0)
(-0.0130319 -0.130202 0)
(-0.021979 -0.170384 0)
(-0.0377197 -0.220762 0)
(-0.0487299 -0.304517 0)
(-0.0679047 -0.408529 0)
(-0.0144592 -0.360063 0)
(0.0103309 0.0844918 0)
(0.0234226 0.186517 0)
(0.0310875 0.233351 0)
(0.0370182 0.250193 0)
(0.0426811 0.243354 0)
(0.0476368 0.217569 0)
(0.051075 0.180806 0)
(0.0527516 0.140399 0)
(0.0526209 0.100635 0)
(0.0508923 0.0628242 0)
(0.0477828 0.0264576 0)
(0.0431748 -0.00952125 0)
(0.0369007 -0.0460032 0)
(0.0290845 -0.0831428 0)
(0.0189282 -0.120572 0)
(0.00760144 -0.158516 0)
(-0.0118144 -0.204475 0)
(-0.0242366 -0.286519 0)
(-0.0558428 -0.411035 0)
(-0.00613716 -0.401909 0)
(0.00987964 0.0672385 0)
(0.0290348 0.170706 0)
(0.0443632 0.222258 0)
(0.0569079 0.241357 0)
(0.0682039 0.236431 0)
(0.0778933 0.213069 0)
(0.0851167 0.178776 0)
(0.0895736 0.140434 0)
(0.0913403 0.102271 0)
(0.0907164 0.0658323 0)
(0.0880317 0.0309801 0)
(0.0829824 -0.00330264 0)
(0.0754671 -0.0375494 0)
(0.0657737 -0.0723352 0)
(0.0525198 -0.107464 0)
(0.0375841 -0.142815 0)
(0.0131394 -0.184301 0)
(8.58913e-05 -0.263279 0)
(-0.0447948 -0.406734 0)
(0.00276649 -0.436285 0)
(0.00693092 0.0493981 0)
(0.02937 0.14898 0)
(0.0511225 0.203666 0)
(0.0700048 0.224588 0)
(0.0874845 0.221732 0)
(0.103183 0.201574 0)
(0.115856 0.170978 0)
(0.124824 0.136086 0)
(0.129999 0.100886 0)
(0.131621 0.0670553 0)
(0.129958 0.0348441 0)
(0.125035 0.00342845 0)
(0.116403 -0.0274718 0)
(0.104668 -0.0587144 0)
(0.0875714 -0.0903414 0)
(0.0683778 -0.122962 0)
(0.0383088 -0.160883 0)
(0.0238673 -0.237179 0)
(-0.0344361 -0.398979 0)
(0.0134764 -0.464441 0)
(0.00238751 0.0346259 0)
(0.0236455 0.123908 0)
(0.0509682 0.179968 0)
(0.0767056 0.202971 0)
(0.101376 0.202662 0)
(0.124264 0.186261 0)
(0.143723 0.160203 0)
(0.158536 0.12977 0)
(0.168285 0.0985754 0)
(0.173178 0.0683065 0)
(0.173154 0.0395612 0)
(0.168926 0.0119339 0)
(0.159088 -0.0149173 0)
(0.145352 -0.0417261 0)
(0.124045 -0.068772 0)
(0.100499 -0.0975762 0)
(0.0646379 -0.132732 0)
(0.0470152 -0.207473 0)
(-0.0227002 -0.387093 0)
(0.028535 -0.485565 0)
(-0.00342638 0.0286117 0)
(0.0100751 0.101504 0)
(0.03712 0.148708 0)
(0.0689911 0.169479 0)
(0.101892 0.170701 0)
(0.133618 0.158411 0)
(0.161622 0.137974 0)
(0.184173 0.113569 0)
(0.200226 0.0882791 0)
(0.210154 0.0636344 0)
(0.21308 0.0403803 0)
(0.210827 0.0183995 0)
(0.200561 -0.00268269 0)
(0.185926 -0.0233228 0)
(0.161106 -0.0439914 0)
(0.134481 -0.0677549 0)
(0.0929423 -0.101707 0)
(0.0698833 -0.180024 0)
(-0.00436363 -0.370058 0)
(0.0521632 -0.491644 0)
(-0.0140129 0.0185155 0)
(-0.00751615 0.0881757 0)
(0.0192235 0.124199 0)
(0.0564629 0.137329 0)
(0.0976237 0.136922 0)
(0.138013 0.12774 0)
(0.174273 0.113083 0)
(0.204125 0.0953028 0)
(0.226025 0.076828 0)
(0.241122 0.0586767 0)
(0.247158 0.0418015 0)
(0.248075 0.0261048 0)
(0.238734 0.0117386 0)
(0.226914 -0.00205451 0)
(0.20191 -0.0160963 0)
(0.177919 -0.0350333 0)
(0.133565 -0.0678116 0)
(0.107846 -0.146006 0)
(0.0374749 -0.32612 0)
(0.0923686 -0.455871 0)
(-0.10602 0.0824167 0)
(-0.0777607 0.0689898 0)
(-0.0485678 0.0733712 0)
(0.00378391 0.0778927 0)
(0.0573036 0.0782277 0)
(0.11004 0.0739639 0)
(0.157214 0.0666285 0)
(0.199582 0.0572232 0)
(0.231696 0.0475462 0)
(0.259852 0.0378885 0)
(0.27558 0.0292199 0)
(0.290736 0.0212325 0)
(0.291086 0.0144738 0)
(0.295195 0.00808971 0)
(0.278889 0.00112088 0)
(0.27167 -0.0100166 0)
(0.232355 -0.035571 0)
(0.218146 -0.0954204 0)
(0.150208 -0.229723 0)
(0.170672 -0.341455 0)
(0.129969 0.103744 0)
(0.158319 0.0752272 0)
(0.212164 0.0532268 0)
(0.270672 0.0416221 0)
(0.323249 0.0359127 0)
(0.375692 0.0319485 0)
(0.420289 0.0289165 0)
(0.465611 0.025581 0)
(0.498708 0.0229029 0)
(0.53396 0.0197104 0)
(0.553399 0.0175474 0)
(0.579209 0.0146094 0)
(0.585346 0.0131644 0)
(0.603684 0.0103454 0)
(0.595103 0.00938292 0)
(0.603602 0.00499928 0)
(0.567792 8.88063e-05 0)
(0.547612 -0.0183162 0)
(0.43569 -0.0504144 0)
(0.336753 -0.101386 0)
)
;

boundaryField
{
    movingWall
    {
        type            fixedValue;
        value           uniform (1 0 0);
    }
    fixedWalls
    {
        type            noSlip;
    }
    frontAndBack
    {
        type            empty;
    }
}


// ************************************************************************* //
