/*--------------------------------*- C++ -*----------------------------------*\
| =========                 |                                                 |
| \\      /  F ield         | OpenFOAM: The Open Source CFD Toolbox           |
|  \\    /   O peration     | Version:  2212                                  |
|   \\  /    A nd           | Website:  www.openfoam.com                      |
|    \\/     M anipulation  |                                                 |
\*---------------------------------------------------------------------------*/
FoamFile
{
    version     2.0;
    format      ascii;
    arch        "LSB;label=32;scalar=64";
    class       volScalarField;
    location    "6.4";
    object      p;
}
// * * * * * * * * * * * * * * * * * * * * * * * * * * * * * * * * * * * * * //

dimensions      [0 2 -2 0 0 0 0];

internalField   nonuniform List<scalar> 
400
(
-2.64523e-07
-0.000151138
-0.00053483
-0.00107159
-0.00173179
-0.00249257
-0.00318311
-0.00359534
-0.00356302
-0.002932
-0.00154717
0.000619631
0.00324909
0.00551418
0.00653625
0.00592912
0.00401158
0.00216083
0.00112201
0.00105263
0.000115704
-5.856e-05
-0.000377163
-0.000764054
-0.00124367
-0.00188724
-0.0027045
-0.00354085
-0.00407664
-0.00393503
-0.00284376
-0.000823341
0.0016901
0.00396217
0.00512823
0.00475012
0.00311355
0.00138637
0.000604848
0.000695356
0.000535449
0.000264313
-7.76268e-05
-0.000559612
-0.0013466
-0.00257863
-0.00421517
-0.00597755
-0.00739448
-0.00793513
-0.00725613
-0.0054552
-0.00288613
-0.000189538
0.00179795
0.0024363
0.00171998
0.000514414
-0.000383684
-0.000381065
0.00115008
0.000739783
0.000191072
-0.00077456
-0.00244887
-0.00493235
-0.0079855
-0.0111065
-0.0136857
-0.0151573
-0.0151872
-0.0138217
-0.0112777
-0.00801545
-0.00474004
-0.00219791
-0.000858356
-0.000693956
-0.00127631
-0.00190597
0.00157987
0.000971056
-2.40813e-05
-0.00192261
-0.00500075
-0.00916803
-0.0138945
-0.0184535
-0.022184
-0.024617
-0.0254915
-0.0246874
-0.0223316
-0.0187163
-0.0142821
-0.0096372
-0.00557683
-0.00293586
-0.00218128
-0.00400487
0.00128884
0.000441728
-0.00119795
-0.00429997
-0.00899306
-0.0148591
-0.0210409
-0.0266736
-0.0311413
-0.0341231
-0.0354878
-0.0351335
-0.0331457
-0.0296743
-0.0248627
-0.018932
-0.0124835
-0.0069324
-0.00438781
-0.00650947
-5.2605e-05
-0.00115013
-0.00349785
-0.00778763
-0.0139125
-0.0210816
-0.0281901
-0.0343491
-0.0390594
-0.0421553
-0.0436399
-0.0435321
-0.0419
-0.0388149
-0.0342576
-0.0281151
-0.0205077
-0.0126811
-0.00783924
-0.00773472
-0.00245281
-0.00374234
-0.00669312
-0.0118979
-0.0190108
-0.0269372
-0.0344435
-0.0407033
-0.0453619
-0.0483786
-0.0498368
-0.0498292
-0.048435
-0.0457039
-0.0415913
-0.03587
-0.0282828
-0.019341
-0.011803
-0.00796807
-0.00553656
-0.00691165
-0.0102533
-0.0159997
-0.0236201
-0.0318336
-0.0393771
-0.0455211
-0.0500302
-0.0529388
-0.054362
-0.0544028
-0.0531357
-0.0506214
-0.0468739
-0.0417411
-0.0348133
-0.0259082
-0.0166832
-0.00997817
-0.00872878
-0.0100782
-0.0135824
-0.0195139
-0.0272407
-0.0354219
-0.0428268
-0.0488049
-0.0531874
-0.0560323
-0.0574492
-0.0575207
-0.0563099
-0.0538907
-0.0503487
-0.0456778
-0.0395699
-0.0314761
-0.0222873
-0.0143156
-0.0114959
-0.0127469
-0.0162003
-0.0220216
-0.0295563
-0.0375173
-0.0447339
-0.0505861
-0.0549113
-0.0577487
-0.0591834
-0.0592751
-0.0580737
-0.0556585
-0.0521758
-0.0477625
-0.0423613
-0.0353297
-0.0271584
-0.019148
-0.0135392
-0.0146057
-0.017835
-0.023281
-0.0303785
-0.0379897
-0.0450232
-0.0508342
-0.0551949
-0.0580921
-0.059572
-0.0596745
-0.0584406
-0.0559504
-0.052403
-0.0480478
-0.0431373
-0.0370038
-0.0299916
-0.0223833
-0.0148266
-0.0155547
-0.0183313
-0.0231772
-0.0296432
-0.0368089
-0.0436738
-0.0495288
-0.0540252
-0.0570573
-0.0586188
-0.0587261
-0.0574152
-0.0547887
-0.0510705
-0.046572
-0.0419028
-0.0362542
-0.0301905
-0.0228654
-0.0154573
-0.0157102
-0.0177594
-0.0217177
-0.0273459
-0.0339696
-0.0406689
-0.0466394
-0.0513741
-0.054636
-0.0563427
-0.0564841
-0.0550711
-0.0522382
-0.0482522
-0.0435109
-0.0386814
-0.0331082
-0.0280735
-0.0202585
-0.0155648
-0.0152883
-0.0163244
-0.0190661
-0.0236191
-0.0295843
-0.0361037
-0.0422496
-0.0473247
-0.0509238
-0.0528577
-0.0530617
-0.0515778
-0.0484941
-0.0441506
-0.0390009
-0.0337506
-0.028056
-0.02422
-0.0143795
-0.0152686
-0.0145427
-0.0142522
-0.0154129
-0.018663
-0.0238597
-0.0301804
-0.0365466
-0.0420539
-0.046105
-0.0483867
-0.0487645
-0.0472598
-0.0439436
-0.0391929
-0.0334865
-0.0276302
-0.0216332
-0.0180643
-0.00384577
-0.0146557
-0.0136132
-0.0117035
-0.0110773
-0.0129449
-0.0173613
-0.0235009
-0.0301213
-0.0361289
-0.0407351
-0.0434956
-0.0441791
-0.0427761
-0.0393179
-0.0341482
-0.0276766
-0.0206913
-0.0133016
-0.00682024
0.0160226
-0.0145798
-0.0126549
-0.0086502
-0.00623975
-0.0069134
-0.0107415
-0.016801
-0.023708
-0.0302518
-0.0354804
-0.0388379
-0.0399695
-0.0388197
-0.0354047
-0.0298732
-0.0222776
-0.0128985
-0.000732709
0.0166421
0.05702
-0.0117942
-0.0118317
-0.00573348
-0.00178778
-0.00177758
-0.0054111
-0.01157
-0.0187952
-0.025841
-0.0316407
-0.035608
-0.0373065
-0.036636
-0.0333198
-0.0272095
-0.0175515
-0.00318316
0.0204362
0.060645
0.129773
-0.0295151
-0.0106327
-0.000619557
0.00306457
0.00243174
-0.00156771
-0.00799901
-0.0155386
-0.0229465
-0.0291316
-0.0334817
-0.035536
-0.0351547
-0.0319221
-0.0252127
-0.0128679
0.00939053
0.0511219
0.122825
0.226033
)
;

boundaryField
{
    movingWall
    {
        type            zeroGradient;
    }
    fixedWalls
    {
        type            zeroGradient;
    }
    frontAndBack
    {
        type            empty;
    }
}


// ************************************************************************* //
