/*--------------------------------*- C++ -*----------------------------------*\
| =========                 |                                                 |
| \\      /  F ield         | OpenFOAM: The Open Source CFD Toolbox           |
|  \\    /   O peration     | Version:  2212                                  |
|   \\  /    A nd           | Website:  www.openfoam.com                      |
|    \\/     M anipulation  |                                                 |
\*---------------------------------------------------------------------------*/
FoamFile
{
    version     2.0;
    format      ascii;
    arch        "LSB;label=32;scalar=64";
    class       volVectorField;
    location    "6.4";
    object      U;
}
// * * * * * * * * * * * * * * * * * * * * * * * * * * * * * * * * * * * * * //

dimensions      [0 1 -1 0 0 0 0];

internalField   nonuniform List<vector> 
400
(
(0.00168008 -0.00168158 0)
(0.00483248 -0.0018898 0)
(0.00658078 -0.00119937 0)
(0.00566312 -0.000574241 0)
(0.00156152 0.000184765 0)
(-0.00683509 0.00173924 0)
(-0.0206042 0.00478291 0)
(-0.0395226 0.00872839 0)
(-0.0607782 0.0112841 0)
(-0.0790974 0.0105078 0)
(-0.0897752 0.00677497 0)
(-0.0904364 0.00167346 0)
(-0.0802167 -0.00360908 0)
(-0.0600038 -0.00826687 0)
(-0.0335485 -0.0108406 0)
(-0.00533156 -0.0097927 0)
(0.0166834 -0.00477849 0)
(0.0244404 0.00276955 0)
(0.0161658 0.00646563 0)
(0.0043145 0.00471394 0)
(0.00171676 -0.00505677 0)
(0.00315206 -0.00402357 0)
(-0.000431358 0.000591716 0)
(-0.0113405 0.00644059 0)
(-0.0314237 0.0140425 0)
(-0.0611248 0.0237567 0)
(-0.0967951 0.0330358 0)
(-0.131387 0.0370666 0)
(-0.158888 0.0334998 0)
(-0.176018 0.0233963 0)
(-0.181372 0.00911697 0)
(-0.175013 -0.00697202 0)
(-0.157513 -0.0231486 0)
(-0.129624 -0.0368866 0)
(-0.0936092 -0.0445425 0)
(-0.0522096 -0.041827 0)
(-0.0114283 -0.0263402 0)
(0.0168582 -0.0012986 0)
(0.0178548 0.0162041 0)
(0.00553925 0.0148091 0)
(-0.000243383 -0.00576513 0)
(-0.0053886 0.000815437 0)
(-0.0196131 0.014299 0)
(-0.0444922 0.0312189 0)
(-0.0803017 0.0494109 0)
(-0.122133 0.0642733 0)
(-0.162251 0.0704974 0)
(-0.195153 0.0659887 0)
(-0.218733 0.052167 0)
(-0.232397 0.0315295 0)
(-0.236157 0.00643231 0)
(-0.23068 -0.0210792 0)
(-0.216282 -0.0488254 0)
(-0.192457 -0.0731742 0)
(-0.158943 -0.0889793 0)
(-0.115706 -0.089199 0)
(-0.0645552 -0.0670248 0)
(-0.0138374 -0.0226918 0)
(0.0094702 0.0178863 0)
(0.00415505 0.0235621 0)
(-0.00347217 0.00047145 0)
(-0.0175106 0.0172488 0)
(-0.0434978 0.0414826 0)
(-0.0796369 0.0681494 0)
(-0.122879 0.091095 0)
(-0.16574 0.103775 0)
(-0.201785 0.102835 0)
(-0.229088 0.0896187 0)
(-0.247913 0.0672947 0)
(-0.258861 0.038574 0)
(-0.262769 0.00533981 0)
(-0.260445 -0.0310675 0)
(-0.251826 -0.0683847 0)
(-0.235868 -0.103662 0)
(-0.210581 -0.131411 0)
(-0.173264 -0.142827 0)
(-0.121353 -0.125733 0)
(-0.0568332 -0.070862 0)
(-0.000996513 0.00352955 0)
(0.00474194 0.0282177 0)
(-0.00665912 0.0147947 0)
(-0.0287122 0.0441023 0)
(-0.0632476 0.0770501 0)
(-0.104386 0.108845 0)
(-0.14717 0.131116 0)
(-0.184441 0.138101 0)
(-0.212755 0.129419 0)
(-0.232519 0.10868 0)
(-0.24502 0.0797557 0)
(-0.251987 0.0454369 0)
(-0.255103 0.00726528 0)
(-0.255292 -0.0339376 0)
(-0.252327 -0.0769946 0)
(-0.245666 -0.12058 0)
(-0.232497 -0.160712 0)
(-0.208203 -0.188933 0)
(-0.166735 -0.189909 0)
(-0.103403 -0.14285 0)
(-0.0221841 -0.038879 0)
(0.00737566 0.0270733 0)
(-0.0085037 0.0348693 0)
(-0.0351488 0.0766062 0)
(-0.0730335 0.11488 0)
(-0.11317 0.147598 0)
(-0.150402 0.165917 0)
(-0.179239 0.165855 0)
(-0.198741 0.149658 0)
(-0.210465 0.12242 0)
(-0.216395 0.0884882 0)
(-0.21901 0.0508501 0)
(-0.220272 0.0109786 0)
(-0.221178 -0.0306902 0)
(-0.221927 -0.0746154 0)
(-0.222625 -0.121161 0)
(-0.221083 -0.169098 0)
(-0.212211 -0.212937 0)
(-0.187923 -0.238485 0)
(-0.139616 -0.218469 0)
(-0.0628173 -0.118919 0)
(0.00583764 0.0141822 0)
(-0.00828401 0.056981 0)
(-0.0353081 0.109952 0)
(-0.0717709 0.150396 0)
(-0.106979 0.181057 0)
(-0.136587 0.19374 0)
(-0.15697 0.18635 0)
(-0.168856 0.163199 0)
(-0.174368 0.130437 0)
(-0.175914 0.0928236 0)
(-0.175989 0.053375 0)
(-0.176091 0.0133342 0)
(-0.176893 -0.0272323 0)
(-0.178943 -0.0694474 0)
(-0.182782 -0.114565 0)
(-0.187769 -0.163687 0)
(-0.190278 -0.215667 0)
(-0.182422 -0.26154 0)
(-0.1542 -0.275084 0)
(-0.0993436 -0.205848 0)
(-0.00890647 -0.0146398 0)
(-0.00612757 0.0775549 0)
(-0.0297606 0.140477 0)
(-0.0613658 0.181106 0)
(-0.0898087 0.208193 0)
(-0.111795 0.214774 0)
(-0.12531 0.200452 0)
(-0.131974 0.171231 0)
(-0.134095 0.134089 0)
(-0.134125 0.0940075 0)
(-0.133998 0.053695 0)
(-0.134389 0.013875 0)
(-0.13548 -0.0258015 0)
(-0.137727 -0.0663271 0)
(-0.141821 -0.108895 0)
(-0.148377 -0.155466 0)
(-0.156088 -0.208396 0)
(-0.158982 -0.265755 0)
(-0.146683 -0.308021 0)
(-0.112202 -0.277124 0)
(-0.0309449 -0.075316 0)
(-0.00272473 0.0935541 0)
(-0.0203936 0.165544 0)
(-0.0451041 0.205475 0)
(-0.0662771 0.22844 0)
(-0.0815267 0.229394 0)
(-0.0899983 0.20941 0)
(-0.0936061 0.175667 0)
(-0.0944884 0.135647 0)
(-0.0947354 0.0943353 0)
(-0.0955059 0.0539516 0)
(-0.0968407 0.0145933 0)
(-0.0986466 -0.024495 0)
(-0.101092 -0.0640591 0)
(-0.104682 -0.104764 0)
(-0.110564 -0.148215 0)
(-0.11947 -0.198348 0)
(-0.128265 -0.259623 0)
(-0.126472 -0.323329 0)
(-0.10744 -0.334655 0)
(-0.0373301 -0.16336 0)
(0.0012204 0.102685 0)
(-0.00892871 0.183366 0)
(-0.0256133 0.223012 0)
(-0.0395963 0.242607 0)
(-0.0490619 0.239364 0)
(-0.0539201 0.215391 0)
(-0.0558701 0.17864 0)
(-0.0565595 0.136958 0)
(-0.0574976 0.095239 0)
(-0.059222 0.0551695 0)
(-0.0615039 0.0162965 0)
(-0.0641993 -0.022405 0)
(-0.0673005 -0.0615559 0)
(-0.0709872 -0.101369 0)
(-0.0761933 -0.142529 0)
(-0.0844904 -0.188675 0)
(-0.0959954 -0.24815 0)
(-0.100616 -0.324177 0)
(-0.0951479 -0.37211 0)
(-0.0309137 -0.242481 0)
(0.00511375 0.103845 0)
(0.00295886 0.192954 0)
(-0.00537846 0.233495 0)
(-0.0124859 0.250628 0)
(-0.0168687 0.244533 0)
(-0.0187473 0.218316 0)
(-0.0194243 0.180257 0)
(-0.0199397 0.138196 0)
(-0.0212268 0.0967757 0)
(-0.023455 0.0573042 0)
(-0.0263384 0.0190553 0)
(-0.0298171 -0.0190896 0)
(-0.0339075 -0.0577991 0)
(-0.0385506 -0.0971367 0)
(-0.0442946 -0.137033 0)
(-0.0523721 -0.17989 0)
(-0.0657125 -0.235414 0)
(-0.0742058 -0.317934 0)
(-0.0811873 -0.396605 0)
(-0.022938 -0.307024 0)
(0.00844608 0.0973758 0)
(0.0142061 0.193942 0)
(0.0140905 0.237013 0)
(0.0136976 0.253404 0)
(0.0143211 0.246313 0)
(0.0155187 0.219604 0)
(0.0163796 0.181558 0)
(0.0164347 0.139858 0)
(0.0152962 0.0989552 0)
(0.0130166 0.0600954 0)
(0.00984817 0.0225889 0)
(0.005744 -0.0146859 0)
(0.000561233 -0.0525269 0)
(-0.00555428 -0.0910415 0)
(-0.0130113 -0.129868 0)
(-0.021957 -0.17002 0)
(-0.0377027 -0.220438 0)
(-0.0487387 -0.304286 0)
(-0.0679078 -0.408353 0)
(-0.0144608 -0.359905 0)
(0.0103115 0.0844136 0)
(0.0233876 0.186353 0)
(0.0310436 0.23314 0)
(0.0369667 0.249951 0)
(0.0426215 0.2431 0)
(0.0475688 0.217314 0)
(0.0509978 0.180557 0)
(0.0526641 0.140167 0)
(0.0525215 0.100442 0)
(0.0507812 0.0626945 0)
(0.0476653 0.0264146 0)
(0.0430599 -0.00946519 0)
(0.0367975 -0.0458473 0)
(0.0289985 -0.0828981 0)
(0.0188671 -0.120257 0)
(0.00755976 -0.158161 0)
(-0.0118406 -0.204145 0)
(-0.0242738 -0.286285 0)
(-0.0558619 -0.410867 0)
(-0.00614336 -0.401763 0)
(0.00985857 0.0671902 0)
(0.0289858 0.170562 0)
(0.0442945 0.222062 0)
(0.0568224 0.241129 0)
(0.0681016 0.236189 0)
(0.0777737 0.212825 0)
(0.0849788 0.17854 0)
(0.0894159 0.140217 0)
(0.0911624 0.102091 0)
(0.0905207 0.0657104 0)
(0.0878244 0.0309354 0)
(0.0827761 -0.00325759 0)
(0.0752739 -0.0374141 0)
(0.0656018 -0.0721181 0)
(0.0523817 -0.10718 0)
(0.0374789 -0.142488 0)
(0.0130686 -0.183987 0)
(2.39853e-05 -0.263056 0)
(-0.0448268 -0.406582 0)
(0.00275589 -0.436161 0)
(0.00691536 0.0493845 0)
(0.029315 0.148869 0)
(0.0510368 0.203494 0)
(0.0698935 0.224381 0)
(0.0873488 0.22151 0)
(0.103022 0.201351 0)
(0.11567 0.170766 0)
(0.124612 0.135894 0)
(0.12976 0.10073 0)
(0.13136 0.0669504 0)
(0.129683 0.0348053 0)
(0.124757 0.00346641 0)
(0.116137 -0.0273571 0)
(0.104426 -0.058529 0)
(0.0873692 -0.0900973 0)
(0.0682174 -0.122678 0)
(0.0381976 -0.160602 0)
(0.0237928 -0.236977 0)
(-0.0344764 -0.398849 0)
(0.0134603 -0.464348 0)
(0.00238145 0.0346405 0)
(0.0235979 0.123839 0)
(0.0508792 0.179834 0)
(0.0765813 0.202798 0)
(0.101219 0.20247 0)
(0.124074 0.186067 0)
(0.1435 0.160019 0)
(0.158281 0.129606 0)
(0.168 0.0984424 0)
(0.172868 0.0682177 0)
(0.172828 0.0395268 0)
(0.168596 0.0119613 0)
(0.15877 -0.014828 0)
(0.145058 -0.0415776 0)
(0.123794 -0.0685744 0)
(0.100297 -0.0973458 0)
(0.064494 -0.1325 0)
(0.0469345 -0.207314 0)
(-0.0227473 -0.387006 0)
(0.0285121 -0.485506 0)
(-0.00342265 0.0286473 0)
(0.0100417 0.101479 0)
(0.0370416 0.148615 0)
(0.0688718 0.169345 0)
(0.101733 0.170548 0)
(0.13342 0.158254 0)
(0.161385 0.137827 0)
(0.183898 0.11344 0)
(0.199919 0.0881772 0)
(0.209818 0.0635684 0)
(0.212728 0.0403579 0)
(0.210466 0.0184239 0)
(0.200213 -0.0026086 0)
(0.185603 -0.0232052 0)
(0.160827 -0.0438394 0)
(0.134256 -0.0675831 0)
(0.0927846 -0.101533 0)
(0.0698056 -0.179898 0)
(-0.00440703 -0.370004 0)
(0.0521416 -0.491616 0)
(-0.0139896 0.01855 0)
(-0.00751262 0.0881836 0)
(0.0191783 0.124155 0)
(0.0563706 0.137247 0)
(0.097482 0.13682 0)
(0.137823 0.127631 0)
(0.174036 0.112977 0)
(0.203843 0.0952095 0)
(0.225707 0.0767548 0)
(0.240773 0.0586286 0)
(0.246795 0.0417848 0)
(0.247705 0.02612 0)
(0.238382 0.0117888 0)
(0.226584 -0.00197842 0)
(0.201628 -0.015997 0)
(0.177697 -0.0349246 0)
(0.133411 -0.0677044 0)
(0.107768 -0.145946 0)
(0.0374403 -0.326113 0)
(0.0923544 -0.45587 0)
(-0.106004 0.082441 0)
(-0.0777451 0.0690112 0)
(-0.0485705 0.0733568 0)
(0.00374604 0.077855 0)
(0.0572217 0.0781754 0)
(0.109912 0.0739058 0)
(0.157042 0.0665723 0)
(0.199366 0.057174 0)
(0.231449 0.0475095 0)
(0.259577 0.0378662 0)
(0.275296 0.0292154 0)
(0.290448 0.0212443 0)
(0.290815 0.0145023 0)
(0.294948 0.00812965 0)
(0.278687 0.00117198 0)
(0.271515 -0.00996639 0)
(0.232248 -0.0355279 0)
(0.218101 -0.0954021 0)
(0.150202 -0.229723 0)
(0.170671 -0.34146 0)
(0.129978 0.10375 0)
(0.158338 0.0752442 0)
(0.212195 0.0532466 0)
(0.270703 0.041638 0)
(0.323266 0.0359231 0)
(0.375687 0.0319538 0)
(0.420257 0.0289188 0)
(0.46555 0.025582 0)
(0.498624 0.0229044 0)
(0.533857 0.0197132 0)
(0.553286 0.0175525 0)
(0.579095 0.0146165 0)
(0.585241 0.0131741 0)
(0.603595 0.0103569 0)
(0.595038 0.00939587 0)
(0.603564 0.00501077 0)
(0.567781 9.78976e-05 0)
(0.547628 -0.018311 0)
(0.435718 -0.0504147 0)
(0.336766 -0.101388 0)
)
;

boundaryField
{
    movingWall
    {
        type            fixedValue;
        value           uniform (1 0 0);
    }
    fixedWalls
    {
        type            noSlip;
    }
    frontAndBack
    {
        type            empty;
    }
}


// ************************************************************************* //
