/*--------------------------------*- C++ -*----------------------------------*\
| =========                 |                                                 |
| \\      /  F ield         | OpenFOAM: The Open Source CFD Toolbox           |
|  \\    /   O peration     | Version:  2212                                  |
|   \\  /    A nd           | Website:  www.openfoam.com                      |
|    \\/     M anipulation  |                                                 |
\*---------------------------------------------------------------------------*/
FoamFile
{
    version     2.0;
    format      ascii;
    arch        "LSB;label=32;scalar=64";
    class       volScalarField;
    location    "7.3";
    object      p;
}
// * * * * * * * * * * * * * * * * * * * * * * * * * * * * * * * * * * * * * //

dimensions      [0 2 -2 0 0 0 0];

internalField   nonuniform List<scalar> 
400
(
5.97402e-07
-0.000150304
-0.000534211
-0.00107122
-0.00173171
-0.0024929
-0.00318378
-0.0035962
-0.00356394
-0.00293277
-0.00154753
0.000619937
0.00324984
0.00551462
0.00653534
0.0059261
0.0040067
0.002155
0.00111608
0.00104689
0.000116571
-5.77736e-05
-0.000376571
-0.00076362
-0.00124341
-0.00188731
-0.00270506
-0.00354197
-0.00407816
-0.00393656
-0.00284488
-0.000823785
0.00169014
0.00396194
0.00512673
0.00474665
0.00310807
0.00138028
0.000598718
0.00068954
0.000536538
0.000265219
-7.692e-05
-0.00055912
-0.00134653
-0.00257934
-0.00421705
-0.00598073
-0.00739873
-0.00793976
-0.00726036
-0.00545869
-0.00288888
-0.000192027
0.00179487
0.00243191
0.00171412
0.000507911
-0.000390245
-0.000387242
0.00115168
0.000741167
0.000192068
-0.0007742
-0.00244971
-0.00493508
-0.00799064
-0.0111141
-0.0136954
-0.0151682
-0.015198
-0.0138317
-0.0112864
-0.00802283
-0.00474661
-0.00220425
-0.000864818
-0.000700544
-0.00128304
-0.00191252
0.00158239
0.00097313
-2.28612e-05
-0.00192297
-0.0050037
-0.00917453
-0.0139051
-0.0184681
-0.0222019
-0.024637
-0.0255122
-0.0247071
-0.0223493
-0.0187313
-0.0142945
-0.00964733
-0.00558514
-0.00294289
-0.00218771
-0.00401194
0.00129198
0.000444162
-0.00119709
-0.00430203
-0.00899947
-0.014871
-0.0210587
-0.0266969
-0.0311693
-0.0341541
-0.03552
-0.0351648
-0.0331742
-0.029699
-0.024883
-0.018948
-0.0124955
-0.00694107
-0.00439486
-0.00651745
-4.96034e-05
-0.00114812
-0.00349826
-0.00779242
-0.0139235
-0.0210999
-0.0282159
-0.0343819
-0.0390982
-0.0421983
-0.0436847
-0.043576
-0.0419407
-0.0388505
-0.0342872
-0.0281384
-0.020525
-0.012693
-0.00784767
-0.00774186
-0.00245094
-0.00374171
-0.00669574
-0.0119063
-0.0190269
-0.0269621
-0.0344775
-0.0407459
-0.0454118
-0.0484338
-0.0498945
-0.0498863
-0.0484884
-0.0457511
-0.041631
-0.0359016
-0.0283065
-0.0193576
-0.0118135
-0.00797474
-0.00553664
-0.00691315
-0.0102587
-0.0160119
-0.0236413
-0.0318649
-0.0394187
-0.0455726
-0.0500904
-0.0530054
-0.054432
-0.0544724
-0.0532013
-0.0506798
-0.0469232
-0.0417807
-0.0348436
-0.0259301
-0.0166974
-0.00998702
-0.00873107
-0.0100821
-0.0135906
-0.0195295
-0.0272661
-0.0354584
-0.0428746
-0.0488638
-0.0532559
-0.0561081
-0.057529
-0.0576003
-0.0563852
-0.0539582
-0.050406
-0.0457239
-0.0396056
-0.0315027
-0.022306
-0.0143289
-0.0115
-0.0127526
-0.0162105
-0.0220397
-0.0295846
-0.0375572
-0.0447858
-0.0506496
-0.054985
-0.0578303
-0.0592693
-0.0593608
-0.058155
-0.0557315
-0.0522379
-0.0478127
-0.0424002
-0.0353591
-0.0271803
-0.0191653
-0.0135444
-0.0146125
-0.0178463
-0.0233
-0.0304076
-0.0380305
-0.0450761
-0.0508989
-0.05527
-0.0581752
-0.0596594
-0.0597619
-0.0585234
-0.0560246
-0.0524659
-0.0480982
-0.043176
-0.0370329
-0.0300138
-0.022402
-0.0148322
-0.0155616
-0.0183424
-0.0231953
-0.029671
-0.0368478
-0.0437245
-0.0495911
-0.0540977
-0.0571377
-0.0587034
-0.0588106
-0.0574949
-0.0548598
-0.05113
-0.0466187
-0.0419376
-0.0362796
-0.0302101
-0.0228821
-0.0154627
-0.0157163
-0.0177689
-0.0217333
-0.02737
-0.034004
-0.0407143
-0.0466958
-0.0514404
-0.0547099
-0.0564206
-0.0565618
-0.0551439
-0.0523022
-0.0483045
-0.0435502
-0.0387086
-0.0331264
-0.0280877
-0.0202697
-0.0155696
-0.0152933
-0.0163315
-0.0190778
-0.0236377
-0.0296118
-0.0361414
-0.0422976
-0.0473821
-0.0509883
-0.052926
-0.0531296
-0.0516408
-0.0485483
-0.0441928
-0.0390301
-0.0337676
-0.0280642
-0.0242259
-0.014382
-0.0152726
-0.0145463
-0.0142564
-0.0154197
-0.0186747
-0.0238788
-0.0302086
-0.0365844
-0.0421006
-0.0461586
-0.0484439
-0.0488212
-0.0473117
-0.0439865
-0.0392238
-0.0335042
-0.0276359
-0.0216304
-0.0180576
-0.00383795
-0.0146587
-0.0136154
-0.0117048
-0.0110788
-0.0129492
-0.0173714
-0.023519
-0.0301484
-0.0361646
-0.0407775
-0.0435418
-0.044225
-0.0428174
-0.0393502
-0.0341685
-0.0276834
-0.0206856
-0.0132867
-0.00680025
0.0160403
-0.0145811
-0.0126556
-0.0086486
-0.00623623
-0.00691092
-0.0107433
-0.0168099
-0.0237254
-0.0302776
-0.035513
-0.0388743
-0.0400058
-0.0388517
-0.0354285
-0.0298854
-0.0222761
-0.0128834
-0.00070704
0.0166725
0.0570453
-0.0117938
-0.0118305
-0.00572869
-0.00177996
-0.00176988
-0.00540693
-0.0115724
-0.0188058
-0.0258599
-0.0316665
-0.035638
-0.0373371
-0.0366632
-0.0333392
-0.0272172
-0.0175453
-0.00316292
0.0204673
0.060679
0.129801
-0.0295154
-0.0106304
-0.000612883
0.00307436
0.00244166
-0.00156109
-0.00799869
-0.0155464
-0.0229627
-0.0291548
-0.0335094
-0.0355647
-0.0351803
-0.0319405
-0.0252205
-0.0128629
0.00940918
0.0511505
0.122855
0.226058
)
;

boundaryField
{
    movingWall
    {
        type            zeroGradient;
    }
    fixedWalls
    {
        type            zeroGradient;
    }
    frontAndBack
    {
        type            empty;
    }
}


// ************************************************************************* //
