/*--------------------------------*- C++ -*----------------------------------*\
| =========                 |                                                 |
| \\      /  F ield         | OpenFOAM: The Open Source CFD Toolbox           |
|  \\    /   O peration     | Version:  2212                                  |
|   \\  /    A nd           | Website:  www.openfoam.com                      |
|    \\/     M anipulation  |                                                 |
\*---------------------------------------------------------------------------*/
FoamFile
{
    version     2.0;
    format      ascii;
    arch        "LSB;label=32;scalar=64";
    class       surfaceScalarField;
    location    "7.3";
    object      phi;
}
// * * * * * * * * * * * * * * * * * * * * * * * * * * * * * * * * * * * * * //

dimensions      [0 3 -1 0 0 0 0];

oriented        oriented;

internalField   nonuniform List<scalar> 
760
(
1.55986e-07
-1.56043e-07
2.93429e-07
-1.37442e-07
3.09746e-07
-1.63168e-08
1.8344e-07
1.26306e-07
-1.20489e-07
3.03929e-07
-6.65956e-07
5.45467e-07
-1.48503e-06
8.19075e-07
-2.49031e-06
1.00528e-06
-3.47956e-06
9.8925e-07
-4.21949e-06
7.39932e-07
-4.54323e-06
3.23735e-07
-4.35321e-06
-1.90014e-07
-3.59374e-06
-7.5947e-07
-2.37941e-06
-1.21433e-06
-9.40797e-07
-1.43862e-06
3.46812e-07
-1.28761e-06
1.08916e-06
-7.42352e-07
1.03265e-06
5.65113e-08
4.60853e-07
5.718e-07
4.60854e-07
1.24889e-07
-2.80932e-07
7.43205e-08
-8.68732e-08
-2.97297e-07
3.55301e-07
-1.07899e-06
9.08e-07
-2.31564e-06
1.54058e-06
-3.9266e-06
2.15642e-06
-5.66099e-06
2.55347e-06
-7.20535e-06
2.54964e-06
-8.33509e-06
2.11898e-06
-8.94045e-06
1.3453e-06
-8.97456e-06
3.57841e-07
-8.41489e-06
-7.49685e-07
-7.29277e-06
-1.88158e-06
-5.6417e-06
-2.8654e-06
-3.60599e-06
-3.47433e-06
-1.49076e-06
-3.40283e-06
1.7802e-07
-2.41113e-06
8.58477e-07
-6.23947e-07
5.25515e-07
9.04761e-07
9.86369e-07
-1.27726e-07
-1.53207e-07
-6.34055e-07
4.19456e-07
-1.62483e-06
1.34608e-06
-3.14091e-06
2.42408e-06
-5.05633e-06
3.456e-06
-7.07154e-06
4.17163e-06
-8.87111e-06
4.35304e-06
-1.0275e-05
3.95353e-06
-1.12315e-05
3.07553e-06
-1.1733e-05
1.84677e-06
-1.17272e-05
3.52042e-07
-1.12686e-05
-1.20834e-06
-1.03363e-05
-2.81387e-06
-8.87618e-06
-4.3255e-06
-6.86854e-06
-5.48196e-06
-4.40281e-06
-5.86857e-06
-1.87881e-06
-4.93513e-06
-8.66669e-08
-2.41609e-06
2.94588e-07
5.23505e-07
1.28096e-06
-5.00491e-07
3.47285e-07
-1.55974e-06
1.47871e-06
-3.11878e-06
2.90512e-06
-5.08001e-06
4.38531e-06
-7.18318e-06
5.55917e-06
-9.12054e-06
6.10899e-06
-1.06899e-05
5.92238e-06
-1.18487e-05
5.11234e-06
-1.2625e-05
3.85188e-06
-1.30535e-05
2.27528e-06
-1.31187e-05
4.17192e-07
-1.28794e-05
-1.44762e-06
-1.2297e-05
-3.39629e-06
-1.12696e-05
-5.35287e-06
-9.66658e-06
-7.08501e-06
-7.36319e-06
-8.17196e-06
-4.39809e-06
-7.90023e-06
-1.37806e-06
-5.43612e-06
1.20626e-07
-9.75183e-07
1.40158e-06
-8.61722e-07
1.20901e-06
-2.36104e-06
2.97802e-06
-4.23148e-06
4.77556e-06
-6.2781e-06
6.43193e-06
-8.21982e-06
7.50088e-06
-9.83397e-06
7.72314e-06
-1.10439e-05
7.13229e-06
-1.18761e-05
5.94454e-06
-1.23924e-05
4.36816e-06
-1.26654e-05
2.54832e-06
-1.2786e-05
5.37765e-07
-1.27406e-05
-1.49304e-06
-1.25203e-05
-3.61655e-06
-1.20463e-05
-5.82691e-06
-1.11322e-05
-7.99908e-06
-9.49015e-06
-9.814e-06
-6.82072e-06
-1.05697e-05
-3.22245e-06
-9.03439e-06
-2.61257e-07
-3.93638e-06
1.14033e-06
-1.08669e-06
2.2957e-06
-2.78362e-06
4.67495e-06
-4.67672e-06
6.66865e-06
-6.53408e-06
8.28929e-06
-8.13144e-06
9.09825e-06
-9.3378e-06
8.9295e-06
-1.01491e-05
7.94361e-06
-1.06305e-05
6.42592e-06
-1.08722e-05
4.60984e-06
-1.09739e-05
2.65001e-06
-1.1057e-05
6.20868e-07
-1.11077e-05
-1.44228e-06
-1.11423e-05
-3.58195e-06
-1.11318e-05
-5.83742e-06
-1.09228e-05
-8.20811e-06
-1.01882e-05
-1.05485e-05
-8.43387e-06
-1.2324e-05
-5.24373e-06
-1.22245e-05
-1.15849e-06
-8.02162e-06
-1.81662e-08
-1.1107e-06
3.40639e-06
-2.75814e-06
6.3224e-06
-4.45544e-06
8.36596e-06
-5.99084e-06
9.8247e-06
-7.20428e-06
1.03117e-05
-8.03339e-06
9.75861e-06
-8.51591e-06
8.42612e-06
-8.73881e-06
6.64882e-06
-8.8056e-06
4.67662e-06
-8.81307e-06
2.65749e-06
-8.84345e-06
6.51245e-07
-8.91498e-06
-1.37075e-06
-9.04759e-06
-3.44934e-06
-9.25289e-06
-5.63212e-06
-9.47475e-06
-7.98625e-06
-9.48223e-06
-1.05411e-05
-8.75658e-06
-1.30497e-05
-6.53948e-06
-1.44416e-05
-2.42428e-06
-1.21368e-05
-2.44244e-06
-9.36083e-07
4.34248e-06
-2.34779e-06
7.7341e-06
-3.73512e-06
9.75329e-06
-4.91459e-06
1.10042e-05
-5.78525e-06
1.11823e-05
-6.33028e-06
1.03036e-05
-6.60681e-06
8.70266e-06
-6.70585e-06
6.74787e-06
-6.72332e-06
4.69409e-06
-6.732e-06
2.66618e-06
-6.76738e-06
6.86617e-07
-6.84628e-06
-1.29185e-06
-6.98965e-06
-3.30597e-06
-7.22812e-06
-5.39365e-06
-7.57917e-06
-7.6352e-06
-7.95258e-06
-1.01676e-05
-7.93911e-06
-1.30631e-05
-6.72082e-06
-1.56599e-05
-3.5887e-06
-1.52689e-05
-6.03114e-06
-6.25621e-07
4.9681e-06
-1.68875e-06
8.79723e-06
-2.72249e-06
1.0787e-05
-3.56221e-06
1.18439e-05
-4.15239e-06
1.17725e-05
-4.50318e-06
1.06544e-05
-4.67349e-06
8.87296e-06
-4.74165e-06
6.81603e-06
-4.77984e-06
4.73228e-06
-4.83137e-06
2.71771e-06
-4.90613e-06
7.61373e-07
-5.01033e-06
-1.18766e-06
-5.15375e-06
-3.16255e-06
-5.36494e-06
-5.18246e-06
-5.69905e-06
-7.30109e-06
-6.1701e-06
-9.69659e-06
-6.56109e-06
-1.26721e-05
-6.1315e-06
-1.60895e-05
-3.9261e-06
-1.74743e-05
-9.95725e-06
-2.33026e-07
5.20112e-06
-8.94391e-07
9.4586e-06
-1.56659e-06
1.14592e-05
-2.09678e-06
1.23741e-05
-2.45731e-06
1.2133e-05
-2.67243e-06
1.08696e-05
-2.79036e-06
8.99089e-06
-2.8643e-06
6.88997e-06
-2.93878e-06
4.80676e-06
-3.03565e-06
2.81458e-06
-3.15763e-06
8.83359e-07
-3.30425e-06
-1.04104e-06
-3.47555e-06
-2.99124e-06
-3.68364e-06
-4.97438e-06
-3.97891e-06
-7.00582e-06
-4.44377e-06
-9.23173e-06
-5.02661e-06
-1.20893e-05
-5.12641e-06
-1.59897e-05
-3.56013e-06
-1.90406e-05
-1.35174e-05
1.63748e-07
5.03738e-06
-7.02844e-08
9.69263e-06
-4.03565e-07
1.17925e-05
-6.54912e-07
1.26254e-05
-8.10241e-07
1.22884e-05
-9.00683e-07
1.096e-05
-9.65608e-07
9.05581e-06
-1.03688e-06
6.96125e-06
-1.13106e-06
4.90094e-06
-1.25591e-06
2.93943e-06
-1.41399e-06
1.04143e-06
-1.60742e-06
-8.47605e-07
-1.83466e-06
-2.764e-06
-2.0934e-06
-4.71565e-06
-2.41087e-06
-6.68834e-06
-2.87859e-06
-8.76401e-06
-3.5619e-06
-1.1406e-05
-4.02669e-06
-1.55249e-05
-3.02658e-06
-2.00407e-05
-1.6544e-05
5.02216e-07
4.53516e-06
7.00398e-07
9.49445e-06
7.43782e-07
1.17491e-05
7.79534e-07
1.25897e-05
8.24516e-07
1.22434e-05
8.53409e-07
1.09311e-05
8.46553e-07
9.06267e-06
7.95752e-07
7.01205e-06
7.01856e-07
4.99483e-06
5.66581e-07
3.0747e-06
3.84732e-07
1.22328e-06
1.50117e-07
-6.12991e-07
-1.38837e-07
-2.47505e-06
-4.88776e-07
-4.36571e-06
-9.03339e-07
-6.27378e-06
-1.42607e-06
-8.24128e-06
-2.20442e-06
-1.06276e-05
-2.9541e-06
-1.47752e-05
-2.46101e-06
-2.05338e-05
-1.9005e-05
7.59273e-07
3.77589e-06
1.35876e-06
8.89496e-06
1.75302e-06
1.13549e-05
2.08389e-06
1.22588e-05
2.35826e-06
1.1969e-05
2.54598e-06
1.07434e-05
2.63895e-06
8.9697e-06
2.64788e-06
7.00312e-06
2.58676e-06
5.05595e-06
2.46202e-06
3.19944e-06
2.26606e-06
1.41924e-06
1.9848e-06
-3.31735e-07
1.61886e-06
-2.10911e-06
1.16333e-06
-3.91018e-06
6.13922e-07
-5.72437e-06
-8.0575e-08
-7.54678e-06
-9.54337e-07
-9.75388e-06
-1.91747e-06
-1.38121e-05
-1.92444e-06
-2.05268e-05
-2.09294e-05
8.7488e-07
2.90101e-06
1.81781e-06
7.95203e-06
2.56245e-06
1.06102e-05
3.20614e-06
1.16151e-05
3.75637e-06
1.14188e-05
4.1699e-06
1.03299e-05
4.4309e-06
8.7087e-06
4.55333e-06
6.88069e-06
4.56005e-06
5.04923e-06
4.4661e-06
3.2934e-06
4.26931e-06
1.61602e-06
3.93711e-06
4.66943e-10
3.49018e-06
-1.66218e-06
2.9029e-06
-3.3229e-06
2.17649e-06
-4.99796e-06
1.33002e-06
-6.70031e-06
2.7305e-07
-8.69691e-06
-9.54183e-07
-1.25849e-05
-1.42537e-06
-2.00556e-05
-2.23548e-05
8.1076e-07
2.09025e-06
1.96356e-06
6.79923e-06
3.01059e-06
9.56321e-06
3.98808e-06
1.06376e-05
4.8691e-06
1.05378e-05
5.58765e-06
9.6113e-06
6.10462e-06
8.19173e-06
6.42294e-06
6.56237e-06
6.56338e-06
4.90879e-06
6.54384e-06
3.31295e-06
6.36249e-06
1.79737e-06
6.01669e-06
3.4627e-07
5.47336e-06
-1.11885e-06
4.73999e-06
-2.58952e-06
3.80871e-06
-4.06669e-06
2.70854e-06
-5.60013e-06
1.39989e-06
-7.38827e-06
-1.4986e-07
-1.10351e-05
-9.09731e-07
-1.92958e-05
-2.32645e-05
5.80945e-07
1.5093e-06
1.76887e-06
5.6113e-06
3.11322e-06
8.21886e-06
4.47012e-06
9.28072e-06
5.74209e-06
9.2658e-06
6.83053e-06
8.52287e-06
7.67e-06
7.35226e-06
8.24782e-06
5.98455e-06
8.57629e-06
4.58032e-06
8.67204e-06
3.21719e-06
8.54174e-06
1.92767e-06
8.18252e-06
7.0549e-07
7.55028e-06
-4.86608e-07
6.66242e-06
-1.70166e-06
5.50631e-06
-2.91058e-06
4.12298e-06
-4.2168e-06
2.58617e-06
-5.85146e-06
9.67396e-07
-9.41634e-06
-1.39688e-07
-1.81887e-05
-2.34042e-05
1.54046e-07
1.35526e-06
1.04758e-06
4.71777e-06
2.53151e-06
6.73493e-06
4.26067e-06
7.55156e-06
5.98974e-06
7.53673e-06
7.53099e-06
6.98162e-06
8.78171e-06
6.10153e-06
9.71211e-06
5.05415e-06
1.03172e-05
3.97522e-06
1.06084e-05
2.92601e-06
1.05916e-05
1.94447e-06
1.02723e-05
1.02475e-06
9.60444e-06
1.81283e-07
8.61023e-06
-7.0745e-07
7.27963e-06
-1.57997e-06
5.66474e-06
-2.60191e-06
3.92663e-06
-4.11335e-06
2.24927e-06
-7.73898e-06
6.56387e-07
-1.65958e-05
-2.27478e-05
-5.18918e-07
1.87418e-06
2.0337e-07
3.99548e-06
1.76657e-06
5.17173e-06
3.83902e-06
5.47911e-06
6.00361e-06
5.37214e-06
7.97337e-06
5.01186e-06
9.61171e-06
4.4632e-06
1.0877e-05
3.78882e-06
1.17518e-05
3.10043e-06
1.22522e-05
2.42562e-06
1.23817e-05
1.815e-06
1.216e-05
1.24646e-06
1.16112e-05
7.30055e-07
1.07058e-05
1.97939e-07
9.44852e-06
-3.22676e-07
7.91286e-06
-1.06624e-06
6.2847e-06
-2.4852e-06
4.46559e-06
-5.91988e-06
2.05926e-06
-1.41895e-05
-2.06886e-05
-4.1813e-06
6.05548e-06
-3.64392e-06
3.45809e-06
-1.24417e-06
2.77198e-06
1.5614e-06
2.67354e-06
4.30897e-06
2.62458e-06
6.85155e-06
2.46928e-06
9.07552e-06
2.23923e-06
1.09204e-05
1.94392e-06
1.23677e-05
1.65314e-06
1.34443e-05
1.34899e-06
1.41673e-05
1.09202e-06
1.45814e-05
8.3237e-07
1.46742e-05
6.37229e-07
1.44548e-05
4.17359e-07
1.39189e-05
2.13208e-07
1.30824e-05
-2.29732e-07
1.19333e-05
-1.33605e-06
1.01162e-05
-4.10279e-06
5.63939e-06
-9.71266e-06
-1.50492e-05
6.05548e-06
9.51357e-06
1.22856e-05
1.49591e-05
1.75837e-05
2.00529e-05
2.22922e-05
2.42361e-05
2.58892e-05
2.72382e-05
2.83302e-05
2.91626e-05
2.97998e-05
3.02172e-05
3.04304e-05
3.02007e-05
2.88646e-05
2.47618e-05
1.50492e-05
)
;

boundaryField
{
    movingWall
    {
        type            calculated;
        value           uniform 0;
    }
    fixedWalls
    {
        type            calculated;
        value           uniform 0;
    }
    frontAndBack
    {
        type            empty;
        value           nonuniform List<scalar> 0();
    }
}


// ************************************************************************* //
