/*--------------------------------*- C++ -*----------------------------------*\
| =========                 |                                                 |
| \\      /  F ield         | OpenFOAM: The Open Source CFD Toolbox           |
|  \\    /   O peration     | Version:  2212                                  |
|   \\  /    A nd           | Website:  www.openfoam.com                      |
|    \\/     M anipulation  |                                                 |
\*---------------------------------------------------------------------------*/
FoamFile
{
    version     2.0;
    format      ascii;
    arch        "LSB;label=32;scalar=64";
    class       volVectorField;
    location    "7.3";
    object      U;
}
// * * * * * * * * * * * * * * * * * * * * * * * * * * * * * * * * * * * * * //

dimensions      [0 1 -1 0 0 0 0];

internalField   nonuniform List<vector> 
400
(
(0.00168086 -0.00168305 0)
(0.00483572 -0.00189128 0)
(0.00658653 -0.00120019 0)
(0.0056697 -0.000574784 0)
(0.00156756 0.000184287 0)
(-0.0068318 0.00173931 0)
(-0.0206068 0.00478493 0)
(-0.0395337 0.0087329 0)
(-0.0607978 0.0112891 0)
(-0.0791214 0.0105106 0)
(-0.0897978 0.00677473 0)
(-0.0904528 0.00167085 0)
(-0.0802228 -0.00361342 0)
(-0.0599985 -0.00827163 0)
(-0.0335328 -0.0108445 0)
(-0.00530909 -0.00979426 0)
(0.0167069 -0.00477537 0)
(0.0244581 0.00277382 0)
(0.0161734 0.00646952 0)
(0.0043157 0.00471583 0)
(0.00171885 -0.00506199 0)
(0.00315806 -0.00402887 0)
(-0.000423246 0.000589349 0)
(-0.0113345 0.0064412 0)
(-0.0314254 0.014047 0)
(-0.06114 0.0237669 0)
(-0.096826 0.0330512 0)
(-0.13143 0.0370821 0)
(-0.158939 0.0335103 0)
(-0.17607 0.0233994 0)
(-0.18142 0.0091125 0)
(-0.175053 -0.00698266 0)
(-0.157543 -0.0231638 0)
(-0.129641 -0.036903 0)
(-0.0936131 -0.0445565 0)
(-0.0522012 -0.0418343 0)
(-0.011412 -0.0263369 0)
(0.0168766 -0.00128723 0)
(0.017865 0.0162157 0)
(0.005541 0.0148155 0)
(-0.000241219 -0.00577424 0)
(-0.0053844 0.000807355 0)
(-0.0196113 0.0142993 0)
(-0.0444997 0.0312292 0)
(-0.0803259 0.0494318 0)
(-0.122177 0.0643018 0)
(-0.162311 0.0705271 0)
(-0.195226 0.0660128 0)
(-0.218814 0.0521815 0)
(-0.23248 0.0315322 0)
(-0.236237 0.00642289 0)
(-0.230756 -0.0210996 0)
(-0.216348 -0.048854 0)
(-0.19251 -0.0732061 0)
(-0.158982 -0.0890082 0)
(-0.115728 -0.0892181 0)
(-0.0645605 -0.067028 0)
(-0.0138282 -0.0226761 0)
(0.00947679 0.0179053 0)
(0.00415528 0.0235728 0)
(-0.00347212 0.000460725 0)
(-0.0175134 0.0172441 0)
(-0.0435095 0.041494 0)
(-0.0796653 0.0681773 0)
(-0.122929 0.0911354 0)
(-0.16581 0.10382 0)
(-0.201871 0.102877 0)
(-0.229187 0.089651 0)
(-0.24802 0.0673139 0)
(-0.258972 0.0385776 0)
(-0.26288 0.0053265 0)
(-0.260551 -0.0310973 0)
(-0.251924 -0.0684272 0)
(-0.235953 -0.103711 0)
(-0.210651 -0.13146 0)
(-0.173316 -0.142867 0)
(-0.121384 -0.125753 0)
(-0.0568407 -0.0708575 0)
(-0.000990988 0.0035511 0)
(0.00474215 0.0282313 0)
(-0.00666143 0.014788 0)
(-0.0287234 0.0441084 0)
(-0.0632745 0.0770786 0)
(-0.104434 0.108893 0)
(-0.147241 0.131175 0)
(-0.18453 0.138162 0)
(-0.212859 0.129472 0)
(-0.232635 0.108722 0)
(-0.245146 0.0797818 0)
(-0.252118 0.0454437 0)
(-0.255236 0.00725052 0)
(-0.255421 -0.0339737 0)
(-0.252448 -0.0770482 0)
(-0.245774 -0.120645 0)
(-0.232589 -0.16078 0)
(-0.208277 -0.188995 0)
(-0.166789 -0.189955 0)
(-0.103432 -0.14287 0)
(-0.0221834 -0.0388646 0)
(0.0073794 0.0270899 0)
(-0.00850825 0.0348728 0)
(-0.0351671 0.0766283 0)
(-0.0730718 0.114928 0)
(-0.113231 0.147666 0)
(-0.150483 0.165994 0)
(-0.179337 0.165931 0)
(-0.198853 0.149725 0)
(-0.210591 0.122474 0)
(-0.216532 0.0885241 0)
(-0.219157 0.050863 0)
(-0.220424 0.0109649 0)
(-0.221326 -0.0307306 0)
(-0.222065 -0.0746789 0)
(-0.222749 -0.12124 0)
(-0.221188 -0.169183 0)
(-0.212298 -0.213018 0)
(-0.187991 -0.238555 0)
(-0.139663 -0.218519 0)
(-0.0628382 -0.118936 0)
(0.00584446 0.0141948 0)
(-0.00828974 0.0569978 0)
(-0.0353303 0.109992 0)
(-0.0718143 0.150463 0)
(-0.107044 0.181144 0)
(-0.136669 0.193834 0)
(-0.157067 0.18644 0)
(-0.168969 0.163281 0)
(-0.174497 0.130505 0)
(-0.17606 0.0928721 0)
(-0.176149 0.0533965 0)
(-0.176258 0.0133226 0)
(-0.177059 -0.027279 0)
(-0.179098 -0.0695254 0)
(-0.182919 -0.114664 0)
(-0.187883 -0.163793 0)
(-0.190369 -0.215767 0)
(-0.182494 -0.261628 0)
(-0.154255 -0.275156 0)
(-0.0993829 -0.205895 0)
(-0.0089077 -0.0146314 0)
(-0.00613289 0.0775862 0)
(-0.0297822 0.140535 0)
(-0.0614076 0.181191 0)
(-0.0898691 0.208296 0)
(-0.111871 0.214883 0)
(-0.1254 0.200557 0)
(-0.13208 0.171329 0)
(-0.13422 0.134174 0)
(-0.134269 0.0940722 0)
(-0.134159 0.0537287 0)
(-0.134559 0.0138682 0)
(-0.135651 -0.0258536 0)
(-0.13789 -0.066421 0)
(-0.141966 -0.109019 0)
(-0.148496 -0.1556 0)
(-0.156179 -0.208522 0)
(-0.159051 -0.265862 0)
(-0.146734 -0.30811 0)
(-0.112241 -0.277193 0)
(-0.0309593 -0.075333 0)
(-0.00272826 0.0935988 0)
(-0.020411 0.165619 0)
(-0.0451385 0.205575 0)
(-0.0663269 0.228558 0)
(-0.0815894 0.229517 0)
(-0.0900734 0.209531 0)
(-0.0936964 0.175782 0)
(-0.0945969 0.135751 0)
(-0.0948623 0.0944181 0)
(-0.0956478 0.0539996 0)
(-0.0969917 0.0145936 0)
(-0.0987999 -0.0245487 0)
(-0.10124 -0.064164 0)
(-0.104816 -0.104908 0)
(-0.110677 -0.148378 0)
(-0.119556 -0.198504 0)
(-0.128326 -0.259752 0)
(-0.126512 -0.323432 0)
(-0.107471 -0.334745 0)
(-0.0373444 -0.163419 0)
(0.0012198 0.10274 0)
(-0.00893882 0.183454 0)
(-0.0256359 0.223125 0)
(-0.03963 0.242736 0)
(-0.0491049 0.239498 0)
(-0.0539725 0.215524 0)
(-0.0559346 0.17877 0)
(-0.0566383 0.137079 0)
(-0.0575901 0.095338 0)
(-0.0593251 0.0552302 0)
(-0.0616135 0.0163044 0)
(-0.0643119 -0.0224566 0)
(-0.0674117 -0.0616651 0)
(-0.0710918 -0.101526 0)
(-0.0762848 -0.142714 0)
(-0.0845615 -0.188859 0)
(-0.0960444 -0.248303 0)
(-0.100643 -0.324292 0)
(-0.0951676 -0.372208 0)
(-0.0309209 -0.24256 0)
(0.00511688 0.103904 0)
(0.00295807 0.19305 0)
(-0.00538605 0.233616 0)
(-0.0124998 0.250765 0)
(-0.0168878 0.244677 0)
(-0.0187717 0.218459 0)
(-0.0194556 0.180398 0)
(-0.0199787 0.138327 0)
(-0.0212725 0.0968853 0)
(-0.0235053 0.0573741 0)
(-0.026392 0.0190708 0)
(-0.0298735 -0.0191355 0)
(-0.0339663 -0.0579055 0)
(-0.0386098 -0.0972952 0)
(-0.0443507 -0.137227 0)
(-0.052418 -0.180093 0)
(-0.0657446 -0.235588 0)
(-0.0742176 -0.318062 0)
(-0.0811965 -0.396709 0)
(-0.0229411 -0.307114 0)
(0.00845357 0.0974316 0)
(0.0142159 0.194041 0)
(0.0140994 0.237137 0)
(0.0137056 0.253544 0)
(0.0143289 0.24646 0)
(0.0155262 0.219751 0)
(0.0163865 0.181703 0)
(0.0164409 0.139994 0)
(0.0153028 0.0990695 0)
(0.0130247 0.0601704 0)
(0.00985666 0.0226106 0)
(0.00575007 -0.0147247 0)
(0.000561994 -0.0526257 0)
(-0.00555954 -0.0911932 0)
(-0.013023 -0.13006 0)
(-0.0219696 -0.17023 0)
(-0.0377124 -0.220624 0)
(-0.0487336 -0.304419 0)
(-0.067906 -0.408454 0)
(-0.0144599 -0.359996 0)
(0.0103227 0.0844587 0)
(0.0234078 0.186448 0)
(0.0310689 0.233262 0)
(0.0369964 0.25009 0)
(0.0426559 0.243246 0)
(0.047608 0.217461 0)
(0.0510423 0.1807 0)
(0.0527145 0.1403 0)
(0.0525787 0.100553 0)
(0.0508451 0.0627687 0)
(0.0477329 0.026439 0)
(0.0431259 -0.0094975 0)
(0.0368568 -0.0459368 0)
(0.0290479 -0.0830386 0)
(0.0189022 -0.120438 0)
(0.00758371 -0.158365 0)
(-0.0118255 -0.204334 0)
(-0.0242524 -0.28642 0)
(-0.0558509 -0.410964 0)
(-0.00613979 -0.401847 0)
(0.00987074 0.0672181 0)
(0.0290141 0.170645 0)
(0.0443341 0.222175 0)
(0.0568717 0.241261 0)
(0.0681605 0.236328 0)
(0.0778425 0.212965 0)
(0.0850582 0.178675 0)
(0.0895066 0.140341 0)
(0.0912646 0.102194 0)
(0.0906331 0.0657801 0)
(0.0879434 0.0309608 0)
(0.0828946 -0.00328359 0)
(0.0753848 -0.0374918 0)
(0.0657004 -0.0722427 0)
(0.052461 -0.107343 0)
(0.0375393 -0.142676 0)
(0.0131093 -0.184168 0)
(5.96073e-05 -0.263185 0)
(-0.0448084 -0.40667 0)
(0.002762 -0.436232 0)
(0.00692435 0.0493923 0)
(0.0293467 0.148933 0)
(0.0510862 0.203593 0)
(0.0699577 0.224501 0)
(0.087427 0.221638 0)
(0.103115 0.201479 0)
(0.115777 0.170888 0)
(0.124734 0.136004 0)
(0.129897 0.100819 0)
(0.13151 0.0670104 0)
(0.129841 0.0348273 0)
(0.124916 0.00344449 0)
(0.11629 -0.027423 0)
(0.104565 -0.0586355 0)
(0.0874853 -0.0902375 0)
(0.0683095 -0.122841 0)
(0.0382615 -0.160763 0)
(0.0238356 -0.237093 0)
(-0.0344532 -0.398924 0)
(0.0134696 -0.464402 0)
(0.00238495 0.0346321 0)
(0.0236254 0.123879 0)
(0.0509306 0.179911 0)
(0.076653 0.202898 0)
(0.101309 0.202581 0)
(0.124184 0.186178 0)
(0.143629 0.160125 0)
(0.158427 0.1297 0)
(0.168164 0.0985185 0)
(0.173046 0.0682685 0)
(0.173015 0.0395464 0)
(0.168785 0.0119455 0)
(0.158953 -0.0148793 0)
(0.145227 -0.0416629 0)
(0.123938 -0.0686879 0)
(0.100413 -0.0974782 0)
(0.0645768 -0.132633 0)
(0.0469809 -0.207405 0)
(-0.0227202 -0.387056 0)
(0.0285253 -0.48554 0)
(-0.00342481 0.0286267 0)
(0.010061 0.101494 0)
(0.0370869 0.148669 0)
(0.0689406 0.169422 0)
(0.101824 0.170637 0)
(0.133534 0.158344 0)
(0.161521 0.137911 0)
(0.184056 0.113514 0)
(0.200095 0.0882356 0)
(0.210011 0.0636061 0)
(0.21293 0.0403706 0)
(0.210673 0.0184098 0)
(0.200413 -0.0026512 0)
(0.185788 -0.0232728 0)
(0.160987 -0.0439268 0)
(0.134386 -0.0676819 0)
(0.0928754 -0.101633 0)
(0.0698504 -0.179971 0)
(-0.00438202 -0.370035 0)
(0.0521541 -0.491632 0)
(-0.0140031 0.0185301 0)
(-0.00751464 0.0881791 0)
(0.0192045 0.124181 0)
(0.0564239 0.137294 0)
(0.0975638 0.136879 0)
(0.137933 0.127694 0)
(0.174173 0.113038 0)
(0.204005 0.0952631 0)
(0.22589 0.0767968 0)
(0.240974 0.0586562 0)
(0.247004 0.0417943 0)
(0.247918 0.0261112 0)
(0.238584 0.0117599 0)
(0.226774 -0.00202217 0)
(0.20179 -0.0160541 0)
(0.177825 -0.0349872 0)
(0.1335 -0.0677662 0)
(0.107813 -0.145981 0)
(0.0374603 -0.326117 0)
(0.0923626 -0.455871 0)
(-0.106013 0.082427 0)
(-0.077754 0.0689989 0)
(-0.0485688 0.0733652 0)
(0.00376802 0.0778768 0)
(0.0572691 0.0782057 0)
(0.109986 0.0739393 0)
(0.157141 0.0666047 0)
(0.19949 0.0572023 0)
(0.231591 0.0475306 0)
(0.259735 0.037879 0)
(0.275459 0.029218 0)
(0.290614 0.0212375 0)
(0.290971 0.0144859 0)
(0.29509 0.00810668 0)
(0.278803 0.00114258 0)
(0.271604 -0.00999527 0)
(0.232309 -0.0355528 0)
(0.218127 -0.0954127 0)
(0.150206 -0.229723 0)
(0.170671 -0.341457 0)
(0.129972 0.103747 0)
(0.158327 0.0752343 0)
(0.212177 0.0532352 0)
(0.270685 0.0416288 0)
(0.323256 0.0359171 0)
(0.37569 0.0319507 0)
(0.420276 0.0289175 0)
(0.465585 0.0255814 0)
(0.498672 0.0229036 0)
(0.533916 0.0197116 0)
(0.553351 0.0175496 0)
(0.579161 0.0146124 0)
(0.585301 0.0131685 0)
(0.603646 0.0103503 0)
(0.595075 0.00938842 0)
(0.603586 0.00500415 0)
(0.567787 9.2651e-05 0)
(0.547619 -0.018314 0)
(0.435701 -0.0504145 0)
(0.336759 -0.101387 0)
)
;

boundaryField
{
    movingWall
    {
        type            fixedValue;
        value           uniform (1 0 0);
    }
    fixedWalls
    {
        type            noSlip;
    }
    frontAndBack
    {
        type            empty;
    }
}


// ************************************************************************* //
