/*--------------------------------*- C++ -*----------------------------------*\
| =========                 |                                                 |
| \\      /  F ield         | OpenFOAM: The Open Source CFD Toolbox           |
|  \\    /   O peration     | Version:  2212                                  |
|   \\  /    A nd           | Website:  www.openfoam.com                      |
|    \\/     M anipulation  |                                                 |
\*---------------------------------------------------------------------------*/
FoamFile
{
    version     2.0;
    format      ascii;
    arch        "LSB;label=32;scalar=64";
    class       volVectorField;
    location    "5.5";
    object      U;
}
// * * * * * * * * * * * * * * * * * * * * * * * * * * * * * * * * * * * * * //

dimensions      [0 1 -1 0 0 0 0];

internalField   nonuniform List<vector> 
400
(
(0.00167712 -0.00167916 0)
(0.00482293 -0.00188668 0)
(0.00656586 -0.00119758 0)
(0.00564656 -0.000573023 0)
(0.00154655 0.000185872 0)
(-0.00684317 0.00173901 0)
(-0.0205981 0.00477787 0)
(-0.0394957 0.00871722 0)
(-0.0607303 0.0112716 0)
(-0.0790387 0.0105007 0)
(-0.0897195 0.00677516 0)
(-0.0903951 0.00167934 0)
(-0.0801994 -0.003599 0)
(-0.0600134 -0.00825562 0)
(-0.0335831 -0.0108313 0)
(-0.00538266 -0.00978862 0)
(0.016629 -0.00478532 0)
(0.0243988 0.00275969 0)
(0.0161478 0.00645642 0)
(0.00431159 0.00470939 0)
(0.00171125 -0.00504571 0)
(0.00313677 -0.00401158 0)
(-0.000451445 0.000596885 0)
(-0.0113548 0.00643863 0)
(-0.0314191 0.0140312 0)
(-0.0610872 0.0237316 0)
(-0.0967194 0.0329983 0)
(-0.131281 0.0370292 0)
(-0.158766 0.0334745 0)
(-0.175893 0.0233888 0)
(-0.181256 0.00912728 0)
(-0.174915 -0.0069471 0)
(-0.157441 -0.0231127 0)
(-0.129581 -0.0368473 0)
(-0.0935968 -0.0445087 0)
(-0.0522268 -0.0418085 0)
(-0.0114648 -0.0263463 0)
(0.0168157 -0.00132452 0)
(0.017831 0.0161768 0)
(0.00553511 0.0147937 0)
(-0.000248712 -0.00574389 0)
(-0.00539876 0.000834013 0)
(-0.0196171 0.0142973 0)
(-0.044473 0.0311928 0)
(-0.080242 0.0493597 0)
(-0.122027 0.0642046 0)
(-0.162106 0.0704269 0)
(-0.19498 0.0659317 0)
(-0.218544 0.052133 0)
(-0.232202 0.0315233 0)
(-0.235966 0.00645457 0)
(-0.230504 -0.0210312 0)
(-0.216126 -0.048758 0)
(-0.192329 -0.0730985 0)
(-0.15885 -0.0889099 0)
(-0.115651 -0.0891522 0)
(-0.0645403 -0.0670148 0)
(-0.0138575 -0.0227267 0)
(0.00945513 0.0178425 0)
(0.00415453 0.023537 0)
(-0.0034722 0.000496411 0)
(-0.0175033 0.0172588 0)
(-0.0434685 0.0414537 0)
(-0.0795673 0.0680809 0)
(-0.122758 0.0909976 0)
(-0.165572 0.103668 0)
(-0.201581 0.102738 0)
(-0.228857 0.0895437 0)
(-0.247664 0.0672505 0)
(-0.258602 0.0385664 0)
(-0.262513 0.0053713 0)
(-0.260199 -0.030998 0)
(-0.251601 -0.0682854 0)
(-0.23567 -0.103545 0)
(-0.210418 -0.131295 0)
(-0.173141 -0.142733 0)
(-0.12128 -0.125681 0)
(-0.056814 -0.0708696 0)
(-0.00100879 0.00348027 0)
(0.00474146 0.0281858 0)
(-0.00665341 0.0148097 0)
(-0.0286847 0.0440857 0)
(-0.0631823 0.0769801 0)
(-0.10427 0.108729 0)
(-0.147003 0.130975 0)
(-0.184232 0.13796 0)
(-0.212514 0.129294 0)
(-0.23225 0.108584 0)
(-0.244731 0.0796965 0)
(-0.251685 0.0454223 0)
(-0.254799 0.00730026 0)
(-0.254996 -0.0338538 0)
(-0.252052 -0.0768706 0)
(-0.24542 -0.120429 0)
(-0.232285 -0.160552 0)
(-0.20803 -0.188786 0)
(-0.166608 -0.189798 0)
(-0.103334 -0.1428 0)
(-0.0221844 -0.0389104 0)
(0.00736705 0.0270351 0)
(-0.00849273 0.0348597 0)
(-0.0351047 0.0765515 0)
(-0.0729422 0.114764 0)
(-0.113027 0.147437 0)
(-0.150212 0.165736 0)
(-0.179013 0.16568 0)
(-0.198484 0.149504 0)
(-0.210178 0.122297 0)
(-0.216082 0.0884078 0)
(-0.218677 0.0508224 0)
(-0.21993 0.0110114 0)
(-0.220842 -0.030597 0)
(-0.221613 -0.0744698 0)
(-0.222345 -0.12098 0)
(-0.220843 -0.168902 0)
(-0.212012 -0.212748 0)
(-0.187765 -0.238322 0)
(-0.139505 -0.218351 0)
(-0.0627677 -0.118878 0)
(0.00582218 0.0141536 0)
(-0.00827045 0.0569395 0)
(-0.0352556 0.109855 0)
(-0.0716684 0.150235 0)
(-0.106828 0.180854 0)
(-0.136395 0.193524 0)
(-0.156746 0.186142 0)
(-0.1686 0.163013 0)
(-0.174076 0.130283 0)
(-0.175586 0.0927157 0)
(-0.17563 0.0533286 0)
(-0.175715 0.0133625 0)
(-0.176521 -0.027125 0)
(-0.178594 -0.0692692 0)
(-0.182473 -0.114339 0)
(-0.187511 -0.163445 0)
(-0.19007 -0.215437 0)
(-0.182258 -0.261339 0)
(-0.154073 -0.274917 0)
(-0.0992526 -0.205737 0)
(-0.00890307 -0.0146582 0)
(-0.0061152 0.0774793 0)
(-0.0297099 0.140338 0)
(-0.0612682 0.180905 0)
(-0.0896687 0.207952 0)
(-0.11162 0.214522 0)
(-0.125105 0.20021 0)
(-0.131735 0.17101 0)
(-0.133815 0.133898 0)
(-0.133801 0.093864 0)
(-0.133638 0.0536214 0)
(-0.134008 0.0138928 0)
(-0.135097 -0.025682 0)
(-0.137363 -0.0661135 0)
(-0.141497 -0.108615 0)
(-0.148109 -0.15516 0)
(-0.155881 -0.208109 0)
(-0.158828 -0.265511 0)
(-0.14657 -0.307818 0)
(-0.112114 -0.276962 0)
(-0.0309115 -0.0752747 0)
(-0.00271667 0.0934472 0)
(-0.0203533 0.165368 0)
(-0.0450241 0.205239 0)
(-0.0661626 0.228166 0)
(-0.081384 0.229112 0)
(-0.0898289 0.209137 0)
(-0.0934033 0.175409 0)
(-0.0942458 0.135415 0)
(-0.0944519 0.0941513 0)
(-0.095189 0.0538461 0)
(-0.0965037 0.0145949 0)
(-0.0983039 -0.0243724 0)
(-0.100761 -0.0638214 0)
(-0.10438 -0.104438 0)
(-0.110309 -0.147846 0)
(-0.119276 -0.197994 0)
(-0.128127 -0.259328 0)
(-0.126381 -0.323091 0)
(-0.107369 -0.334447 0)
(-0.0372976 -0.16322 0)
(0.00122148 0.102556 0)
(-0.00890558 0.183159 0)
(-0.0255615 0.222749 0)
(-0.0395197 0.242307 0)
(-0.0489648 0.239055 0)
(-0.0538026 0.215088 0)
(-0.055726 0.178348 0)
(-0.0563842 0.136688 0)
(-0.0572921 0.0950193 0)
(-0.0589931 0.0550359 0)
(-0.0612602 0.0162809 0)
(-0.0639489 -0.0222872 0)
(-0.0670527 -0.0613088 0)
(-0.0707538 -0.101015 0)
(-0.0759886 -0.142112 0)
(-0.084331 -0.188259 0)
(-0.0958855 -0.247803 0)
(-0.100557 -0.323913 0)
(-0.0951032 -0.371885 0)
(-0.0308974 -0.242297 0)
(0.00510608 0.103707 0)
(0.00296015 0.192727 0)
(-0.00536155 0.233213 0)
(-0.012455 0.25031 0)
(-0.0168264 0.244206 0)
(-0.0186936 0.217992 0)
(-0.0193557 0.179942 0)
(-0.0198541 0.137902 0)
(-0.0211266 0.0965329 0)
(-0.0233448 0.0571502 0)
(-0.026221 0.0190228 0)
(-0.0296931 -0.018985 0)
(-0.0337776 -0.057559 0)
(-0.0384195 -0.0967793 0)
(-0.0441697 -0.136594 0)
(-0.0522694 -0.179431 0)
(-0.0656408 -0.235019 0)
(-0.0741798 -0.317643 0)
(-0.0811668 -0.396366 0)
(-0.0229312 -0.306817 0)
(0.00842825 0.0972443 0)
(0.014183 0.193709 0)
(0.0140692 0.236724 0)
(0.0136781 0.253079 0)
(0.0143021 0.245977 0)
(0.0155001 0.21927 0)
(0.0163623 0.181232 0)
(0.0164189 0.139554 0)
(0.0152791 0.0987021 0)
(0.012996 0.0599304 0)
(0.00982682 0.0225429 0)
(0.00572847 -0.0145976 0)
(0.000557842 -0.052304 0)
(-0.00554407 -0.0906998 0)
(-0.0129862 -0.129436 0)
(-0.0219294 -0.169548 0)
(-0.0376814 -0.220016 0)
(-0.048751 -0.303984 0)
(-0.0679123 -0.40812 0)
(-0.0144631 -0.359696 0)
(0.0102849 0.0843072 0)
(0.0233401 0.186129 0)
(0.0309843 0.232855 0)
(0.0368975 0.24963 0)
(0.042542 0.242766 0)
(0.0474785 0.216983 0)
(0.0508959 0.180237 0)
(0.052549 0.139872 0)
(0.0523913 0.100196 0)
(0.050636 0.0625317 0)
(0.0475117 0.0263623 0)
(0.0429105 -0.00939174 0)
(0.0366635 -0.0456452 0)
(0.0288865 -0.0825815 0)
(0.0187872 -0.119849 0)
(0.00750531 -0.1577 0)
(-0.0118751 -0.203714 0)
(-0.0243231 -0.285977 0)
(-0.055887 -0.410644 0)
(-0.00615168 -0.401569 0)
(0.00982991 0.0671245 0)
(0.0289195 0.170366 0)
(0.0442024 0.221797 0)
(0.0567082 0.240824 0)
(0.0679658 0.235869 0)
(0.077616 0.212509 0)
(0.084798 0.178236 0)
(0.0892103 0.13994 0)
(0.0909313 0.101863 0)
(0.090267 0.0655577 0)
(0.0875542 0.0308813 0)
(0.0825096 -0.00319545 0)
(0.0750246 -0.0372365 0)
(0.0653794 -0.0718368 0)
(0.0522029 -0.106813 0)
(0.0373426 -0.142064 0)
(0.0129763 -0.183577 0)
(-5.72554e-05 -0.262761 0)
(-0.0448689 -0.40638 0)
(0.00274182 -0.435995 0)
(0.00689422 0.0493657 0)
(0.0292407 0.148718 0)
(0.0509218 0.203262 0)
(0.069745 0.224105 0)
(0.0871689 0.221216 0)
(0.102811 0.201061 0)
(0.115426 0.170492 0)
(0.124334 0.13565 0)
(0.12945 0.100531 0)
(0.131023 0.0668193 0)
(0.129327 0.0347589 0)
(0.124401 0.00351947 0)
(0.115794 -0.0272068 0)
(0.104112 -0.0582886 0)
(0.0871079 -0.0897813 0)
(0.0680096 -0.122307 0)
(0.0380528 -0.160234 0)
(0.0236952 -0.236711 0)
(-0.0345292 -0.398675 0)
(0.0134391 -0.464223 0)
(0.00237323 0.03466 0)
(0.0235334 0.123745 0)
(0.0507593 0.179651 0)
(0.0764148 0.202564 0)
(0.101009 0.202216 0)
(0.123823 0.185813 0)
(0.143207 0.15978 0)
(0.157947 0.129396 0)
(0.167628 0.0982735 0)
(0.172465 0.0681061 0)
(0.172407 0.039485 0)
(0.16817 0.0119979 0)
(0.15836 -0.014712 0)
(0.144678 -0.0413854 0)
(0.12347 -0.0683181 0)
(0.100034 -0.0970456 0)
(0.0643057 -0.132195 0)
(0.0468285 -0.207103 0)
(-0.0228094 -0.386889 0)
(0.0284819 -0.485427 0)
(-0.00341754 0.0286953 0)
(0.00999625 0.101444 0)
(0.0369353 0.148486 0)
(0.0687112 0.169163 0)
(0.10152 0.170343 0)
(0.133156 0.158048 0)
(0.161072 0.137634 0)
(0.183537 0.113273 0)
(0.199516 0.0880473 0)
(0.20938 0.0634853 0)
(0.21227 0.0403311 0)
(0.209998 0.0184568 0)
(0.199762 -0.00251186 0)
(0.185182 -0.0230523 0)
(0.160465 -0.0436416 0)
(0.133962 -0.0673585 0)
(0.0925769 -0.101305 0)
(0.0697028 -0.179729 0)
(-0.00446464 -0.369932 0)
(0.052113 -0.491578 0)
(-0.013958 0.0185966 0)
(-0.00750846 0.0881932 0)
(0.0191157 0.124094 0)
(0.0562448 0.137136 0)
(0.0972905 0.136681 0)
(0.137567 0.127485 0)
(0.173719 0.112839 0)
(0.203469 0.0950881 0)
(0.225288 0.0766603 0)
(0.240314 0.0585671 0)
(0.246319 0.0417642 0)
(0.24722 0.0261404 0)
(0.23792 0.0118543 0)
(0.226151 -0.00187924 0)
(0.201257 -0.0158672 0)
(0.177404 -0.0347818 0)
(0.133207 -0.0675625 0)
(0.107664 -0.145865 0)
(0.0373938 -0.326104 0)
(0.0923355 -0.455866 0)
(-0.105981 0.0824739 0)
(-0.0777248 0.0690391 0)
(-0.048576 0.0733357 0)
(0.00369264 0.0778025 0)
(0.0571089 0.0781041 0)
(0.109738 0.0738276 0)
(0.156809 0.0664974 0)
(0.199077 0.0571092 0)
(0.231118 0.0474614 0)
(0.259212 0.0378372 0)
(0.274918 0.0292097 0)
(0.290068 0.0212598 0)
(0.290457 0.0145395 0)
(0.294621 0.00818186 0)
(0.278421 0.00123902 0)
(0.271309 -0.00990023 0)
(0.232104 -0.0354705 0)
(0.218041 -0.0953773 0)
(0.150191 -0.229723 0)
(0.170669 -0.341467 0)
(0.12999 0.103758 0)
(0.158365 0.0752678 0)
(0.212237 0.0532735 0)
(0.270744 0.0416594 0)
(0.323289 0.0359369 0)
(0.375678 0.0319608 0)
(0.420212 0.0289219 0)
(0.465467 0.0255833 0)
(0.49851 0.0229065 0)
(0.533719 0.0197169 0)
(0.553136 0.0175592 0)
(0.578944 0.0146259 0)
(0.585101 0.0131868 0)
(0.603477 0.0103721 0)
(0.594951 0.00941292 0)
(0.603513 0.00502598 0)
(0.567765 0.000110106 0)
(0.547648 -0.0183038 0)
(0.435754 -0.0504147 0)
(0.336784 -0.101392 0)
)
;

boundaryField
{
    movingWall
    {
        type            fixedValue;
        value           uniform (1 0 0);
    }
    fixedWalls
    {
        type            noSlip;
    }
    frontAndBack
    {
        type            empty;
    }
}


// ************************************************************************* //
