/*--------------------------------*- C++ -*----------------------------------*\
| =========                 |                                                 |
| \\      /  F ield         | OpenFOAM: The Open Source CFD Toolbox           |
|  \\    /   O peration     | Version:  2212                                  |
|   \\  /    A nd           | Website:  www.openfoam.com                      |
|    \\/     M anipulation  |                                                 |
\*---------------------------------------------------------------------------*/
FoamFile
{
    version     2.0;
    format      ascii;
    arch        "LSB;label=32;scalar=64";
    class       volScalarField;
    location    "0";
    object      omega;
}
// * * * * * * * * * * * * * * * * * * * * * * * * * * * * * * * * * * * * * //

dimensions      [0 0 -1 0 0 0 0];

internalField   nonuniform List<scalar> 
65536
(
1.49623e-21
2.1425e-21
3.05634e-21
4.3435e-21
6.14948e-21
8.67351e-21
1.21874e-20
1.70602e-20
2.37913e-20
3.30528e-20
4.57466e-20
6.30766e-20
8.66435e-20
1.18567e-19
1.6164e-19
2.19529e-19
2.97026e-19
4.00364e-19
5.3762e-19
7.19207e-19
9.58499e-19
1.27259e-18
1.68323e-18
2.21797e-18
2.91158e-18
3.80767e-18
4.96077e-18
6.43869e-18
8.3254e-18
1.07243e-17
1.37624e-17
1.75946e-17
2.24089e-17
2.84329e-17
3.59403e-17
4.52584e-17
5.67775e-17
7.09598e-17
8.835e-17
1.09587e-16
1.35416e-16
1.66702e-16
2.04443e-16
2.49781e-16
3.04023e-16
3.68647e-16
4.45323e-16
5.35918e-16
6.4251e-16
7.67397e-16
9.13102e-16
1.08237e-15
1.27818e-15
1.50372e-15
1.76239e-15
2.05776e-15
2.39357e-15
2.77368e-15
3.20203e-15
3.68258e-15
4.21928e-15
4.81597e-15
5.4763e-15
6.20368e-15
7.00117e-15
7.87137e-15
8.81635e-15
9.83753e-15
1.09356e-14
1.21103e-14
1.33607e-14
1.46846e-14
1.60788e-14
1.75389e-14
1.90595e-14
2.06338e-14
2.22538e-14
2.39105e-14
2.55937e-14
2.7292e-14
2.89933e-14
3.06844e-14
3.23517e-14
3.39809e-14
3.55577e-14
3.70673e-14
3.84953e-14
3.98276e-14
4.10508e-14
4.2152e-14
4.31198e-14
4.39438e-14
4.46149e-14
4.51259e-14
4.54712e-14
4.56472e-14
4.5652e-14
4.54859e-14
4.51511e-14
4.46518e-14
4.39941e-14
4.31858e-14
4.22366e-14
4.11574e-14
3.99608e-14
3.86603e-14
3.72705e-14
3.58065e-14
3.42843e-14
3.27198e-14
3.11293e-14
2.95289e-14
2.79343e-14
2.63609e-14
2.48235e-14
2.33361e-14
2.19119e-14
2.05632e-14
1.93013e-14
1.81365e-14
1.70782e-14
1.61344e-14
1.53124e-14
1.46182e-14
1.40568e-14
1.36323e-14
1.33477e-14
1.32048e-14
1.32048e-14
1.33477e-14
1.36323e-14
1.40568e-14
1.46182e-14
1.53124e-14
1.61344e-14
1.70782e-14
1.81365e-14
1.93013e-14
2.05632e-14
2.19119e-14
2.33361e-14
2.48235e-14
2.63609e-14
2.79343e-14
2.95289e-14
3.11293e-14
3.27198e-14
3.42843e-14
3.58065e-14
3.72705e-14
3.86603e-14
3.99608e-14
4.11574e-14
4.22366e-14
4.31858e-14
4.39941e-14
4.46518e-14
4.51511e-14
4.54859e-14
4.5652e-14
4.56472e-14
4.54712e-14
4.51259e-14
4.46149e-14
4.39438e-14
4.31198e-14
4.2152e-14
4.10508e-14
3.98276e-14
3.84953e-14
3.70673e-14
3.55577e-14
3.39809e-14
3.23517e-14
3.06844e-14
2.89933e-14
2.7292e-14
2.55937e-14
2.39105e-14
2.22538e-14
2.06338e-14
1.90595e-14
1.75389e-14
1.60788e-14
1.46846e-14
1.33607e-14
1.21103e-14
1.09356e-14
9.83753e-15
8.81635e-15
7.87137e-15
7.00117e-15
6.20368e-15
5.4763e-15
4.81597e-15
4.21928e-15
3.68258e-15
3.20203e-15
2.77368e-15
2.39357e-15
2.05776e-15
1.76239e-15
1.50372e-15
1.27818e-15
1.08237e-15
9.13102e-16
7.67397e-16
6.4251e-16
5.35918e-16
4.45323e-16
3.68647e-16
3.04023e-16
2.49781e-16
2.04443e-16
1.66702e-16
1.35416e-16
1.09587e-16
8.835e-17
7.09598e-17
5.67775e-17
4.52584e-17
3.59403e-17
2.84329e-17
2.24089e-17
1.75946e-17
1.37624e-17
1.07243e-17
8.3254e-18
6.43869e-18
4.96077e-18
3.80767e-18
2.91158e-18
2.21797e-18
1.68323e-18
1.27259e-18
9.58499e-19
7.19207e-19
5.3762e-19
4.00364e-19
2.97026e-19
2.19529e-19
1.6164e-19
1.18567e-19
8.66435e-20
6.30766e-20
4.57466e-20
3.30528e-20
2.37913e-20
1.70602e-20
1.21874e-20
8.67351e-21
6.14948e-21
4.3435e-21
3.05634e-21
2.1425e-21
1.49623e-21
2.41792e-21
3.46229e-21
4.93905e-21
7.01913e-21
9.93759e-21
1.40164e-20
1.96949e-20
2.75694e-20
3.84468e-20
5.34136e-20
7.39268e-20
1.01932e-19
1.40016e-19
1.91604e-19
2.6121e-19
3.5476e-19
4.79995e-19
6.46991e-19
8.68797e-19
1.16224e-18
1.54894e-18
2.05651e-18
2.7201e-18
3.58426e-18
4.70513e-18
6.15322e-18
8.01664e-18
1.0405e-17
1.34539e-17
1.73306e-17
2.22402e-17
2.84329e-17
3.62129e-17
4.59478e-17
5.80797e-17
7.31379e-17
9.17528e-17
1.14671e-16
1.42774e-16
1.77093e-16
2.18834e-16
2.69392e-16
3.3038e-16
4.03647e-16
4.91302e-16
5.95736e-16
7.19645e-16
8.66046e-16
1.0383e-15
1.24012e-15
1.47558e-15
1.74912e-15
2.06555e-15
2.43003e-15
2.84803e-15
3.32535e-15
3.86802e-15
4.48228e-15
5.17449e-15
5.95107e-15
6.81838e-15
7.78263e-15
8.84973e-15
1.00252e-14
1.13139e-14
1.27202e-14
1.42473e-14
1.58975e-14
1.7672e-14
1.95704e-14
2.1591e-14
2.37304e-14
2.59834e-14
2.8343e-14
3.08002e-14
3.33443e-14
3.59623e-14
3.86396e-14
4.13595e-14
4.4104e-14
4.68533e-14
4.95861e-14
5.22805e-14
5.49134e-14
5.74614e-14
5.99009e-14
6.22086e-14
6.43617e-14
6.63383e-14
6.81179e-14
6.96819e-14
7.10134e-14
7.20979e-14
7.29237e-14
7.34817e-14
7.37661e-14
7.37738e-14
7.35054e-14
7.29644e-14
7.21576e-14
7.10947e-14
6.97885e-14
6.82546e-14
6.65107e-14
6.45769e-14
6.24753e-14
6.02293e-14
5.78635e-14
5.54035e-14
5.28754e-14
5.03051e-14
4.77188e-14
4.5142e-14
4.25994e-14
4.01149e-14
3.77113e-14
3.54097e-14
3.32302e-14
3.1191e-14
2.93087e-14
2.75984e-14
2.60733e-14
2.47449e-14
2.3623e-14
2.27159e-14
2.20299e-14
2.15699e-14
2.13391e-14
2.13391e-14
2.15699e-14
2.20299e-14
2.27159e-14
2.3623e-14
2.47449e-14
2.60733e-14
2.75984e-14
2.93087e-14
3.1191e-14
3.32302e-14
3.54097e-14
3.77113e-14
4.01149e-14
4.25994e-14
4.5142e-14
4.77188e-14
5.03051e-14
5.28754e-14
5.54035e-14
5.78635e-14
6.02293e-14
6.24753e-14
6.45769e-14
6.65107e-14
6.82546e-14
6.97885e-14
7.10947e-14
7.21576e-14
7.29644e-14
7.35054e-14
7.37738e-14
7.37661e-14
7.34817e-14
7.29237e-14
7.20979e-14
7.10134e-14
6.96819e-14
6.81179e-14
6.63383e-14
6.43617e-14
6.22086e-14
5.99009e-14
5.74614e-14
5.49134e-14
5.22805e-14
4.95861e-14
4.68533e-14
4.4104e-14
4.13595e-14
3.86396e-14
3.59623e-14
3.33443e-14
3.08002e-14
2.8343e-14
2.59834e-14
2.37304e-14
2.1591e-14
1.95704e-14
1.7672e-14
1.58975e-14
1.42473e-14
1.27202e-14
1.13139e-14
1.00252e-14
8.84973e-15
7.78263e-15
6.81838e-15
5.95107e-15
5.17449e-15
4.48228e-15
3.86802e-15
3.32535e-15
2.84803e-15
2.43003e-15
2.06555e-15
1.74912e-15
1.47558e-15
1.24012e-15
1.0383e-15
8.66046e-16
7.19645e-16
5.95736e-16
4.91302e-16
4.03647e-16
3.3038e-16
2.69392e-16
2.18834e-16
1.77093e-16
1.42774e-16
1.14671e-16
9.17528e-17
7.31379e-17
5.80797e-17
4.59478e-17
3.62129e-17
2.84329e-17
2.22402e-17
1.73306e-17
1.34539e-17
1.0405e-17
8.01664e-18
6.15322e-18
4.70513e-18
3.58426e-18
2.7201e-18
2.05651e-18
1.54894e-18
1.16224e-18
8.68797e-19
6.46991e-19
4.79995e-19
3.5476e-19
2.6121e-19
1.91604e-19
1.40016e-19
1.01932e-19
7.39268e-20
5.34136e-20
3.84468e-20
2.75694e-20
1.96949e-20
1.40164e-20
9.93759e-21
7.01913e-21
4.93905e-21
3.46229e-21
2.41792e-21
3.89263e-21
5.57397e-21
7.95143e-21
1.13002e-20
1.59986e-20
2.25652e-20
3.1707e-20
4.43843e-20
6.18959e-20
8.59911e-20
1.19016e-19
1.64102e-19
2.25414e-19
3.08466e-19
4.20525e-19
5.71131e-19
7.72749e-19
1.0416e-18
1.39868e-18
1.87111e-18
2.49365e-18
3.31079e-18
4.37912e-18
5.77033e-18
7.57483e-18
9.90613e-18
1.29061e-17
1.67511e-17
2.16596e-17
2.79007e-17
3.58047e-17
4.57745e-17
5.82996e-17
7.39718e-17
9.35031e-17
1.17745e-16
1.47714e-16
1.84611e-16
2.29853e-16
2.85105e-16
3.52303e-16
4.33697e-16
5.31882e-16
6.49836e-16
7.90952e-16
9.59082e-16
1.15856e-15
1.39426e-15
1.67157e-15
1.99648e-15
2.37555e-15
2.81593e-15
3.32535e-15
3.91213e-15
4.58508e-15
5.35352e-15
6.22717e-15
7.21607e-15
8.33047e-15
9.58069e-15
1.0977e-14
1.25293e-14
1.42473e-14
1.61396e-14
1.82144e-14
2.04783e-14
2.29368e-14
2.55935e-14
2.84503e-14
3.15066e-14
3.47596e-14
3.82038e-14
4.18309e-14
4.56297e-14
4.95856e-14
5.36813e-14
5.7896e-14
6.22062e-14
6.65851e-14
7.10035e-14
7.54295e-14
7.98292e-14
8.41669e-14
8.84056e-14
9.25077e-14
9.64351e-14
1.0015e-13
1.03616e-13
1.06799e-13
1.09664e-13
1.12182e-13
1.14325e-13
1.16071e-13
1.17401e-13
1.18299e-13
1.18757e-13
1.18769e-13
1.18337e-13
1.17466e-13
1.16167e-13
1.14456e-13
1.12353e-13
1.09884e-13
1.07076e-13
1.03963e-13
1.0058e-13
9.69637e-14
9.3155e-14
8.91947e-14
8.51246e-14
8.09867e-14
7.6823e-14
7.26745e-14
6.85812e-14
6.45814e-14
6.07117e-14
5.70065e-14
5.34976e-14
5.02146e-14
4.71844e-14
4.44309e-14
4.19756e-14
3.9837e-14
3.80309e-14
3.65705e-14
3.54661e-14
3.47256e-14
3.4354e-14
3.4354e-14
3.47256e-14
3.54661e-14
3.65705e-14
3.80309e-14
3.9837e-14
4.19756e-14
4.44309e-14
4.71844e-14
5.02146e-14
5.34976e-14
5.70065e-14
6.07117e-14
6.45814e-14
6.85812e-14
7.26745e-14
7.6823e-14
8.09867e-14
8.51246e-14
8.91947e-14
9.3155e-14
9.69637e-14
1.0058e-13
1.03963e-13
1.07076e-13
1.09884e-13
1.12353e-13
1.14456e-13
1.16167e-13
1.17466e-13
1.18337e-13
1.18769e-13
1.18757e-13
1.18299e-13
1.17401e-13
1.16071e-13
1.14325e-13
1.12182e-13
1.09664e-13
1.06799e-13
1.03616e-13
1.0015e-13
9.64351e-14
9.25077e-14
8.84056e-14
8.41669e-14
7.98292e-14
7.54295e-14
7.10035e-14
6.65851e-14
6.22062e-14
5.7896e-14
5.36813e-14
4.95856e-14
4.56297e-14
4.18309e-14
3.82038e-14
3.47596e-14
3.15066e-14
2.84503e-14
2.55935e-14
2.29368e-14
2.04783e-14
1.82144e-14
1.61396e-14
1.42473e-14
1.25293e-14
1.0977e-14
9.58069e-15
8.33047e-15
7.21607e-15
6.22717e-15
5.35352e-15
4.58508e-15
3.91213e-15
3.32535e-15
2.81593e-15
2.37555e-15
1.99648e-15
1.67157e-15
1.39426e-15
1.15856e-15
9.59082e-16
7.90952e-16
6.49836e-16
5.31882e-16
4.33697e-16
3.52303e-16
2.85105e-16
2.29853e-16
1.84611e-16
1.47714e-16
1.17745e-16
9.35031e-17
7.39718e-17
5.82996e-17
4.57745e-17
3.58047e-17
2.79007e-17
2.16596e-17
1.67511e-17
1.29061e-17
9.90613e-18
7.57483e-18
5.77033e-18
4.37912e-18
3.31079e-18
2.49365e-18
1.87111e-18
1.39868e-18
1.0416e-18
7.72749e-19
5.71131e-19
4.20525e-19
3.08466e-19
2.25414e-19
1.64102e-19
1.19016e-19
8.59911e-20
6.18959e-20
4.43843e-20
3.1707e-20
2.25652e-20
1.59986e-20
1.13002e-20
7.95143e-21
5.57397e-21
3.89263e-21
6.24314e-21
8.93975e-21
1.27528e-20
1.81236e-20
2.56592e-20
3.61909e-20
5.08528e-20
7.11851e-20
9.92709e-20
1.37916e-19
1.90882e-19
2.63192e-19
3.61527e-19
4.94729e-19
6.74454e-19
9.16001e-19
1.23936e-18
1.67055e-18
2.24326e-18
3.00095e-18
3.99941e-18
5.30997e-18
7.0234e-18
9.25467e-18
1.21488e-17
1.58878e-17
2.06992e-17
2.6866e-17
3.47384e-17
4.47482e-17
5.74249e-17
7.34148e-17
9.35031e-17
1.18639e-16
1.49964e-16
1.88844e-16
2.36909e-16
2.96085e-16
3.68647e-16
4.57261e-16
5.65036e-16
6.95579e-16
8.53053e-16
1.04223e-15
1.26856e-15
1.53821e-15
1.85815e-15
2.23616e-15
2.68092e-15
3.20203e-15
3.80999e-15
4.51629e-15
5.33332e-15
6.27441e-15
7.35372e-15
8.58617e-15
9.98736e-15
1.15734e-14
1.33607e-14
1.53659e-14
1.76053e-14
2.0095e-14
2.28503e-14
2.58854e-14
2.92129e-14
3.28439e-14
3.67869e-14
4.10479e-14
4.56296e-14
5.05314e-14
5.57487e-14
6.12727e-14
6.709e-14
7.31825e-14
7.95272e-14
8.6096e-14
9.28558e-14
9.97686e-14
1.06792e-13
1.13878e-13
1.20977e-13
1.28033e-13
1.3499e-13
1.41788e-13
1.48367e-13
1.54666e-13
1.60625e-13
1.66184e-13
1.71288e-13
1.75883e-13
1.79921e-13
1.83359e-13
1.86159e-13
1.88291e-13
1.89732e-13
1.90466e-13
1.90487e-13
1.89794e-13
1.88397e-13
1.86313e-13
1.83569e-13
1.80196e-13
1.76236e-13
1.71733e-13
1.6674e-13
1.61313e-13
1.55514e-13
1.49406e-13
1.43054e-13
1.36526e-13
1.2989e-13
1.23212e-13
1.16558e-13
1.09993e-13
1.03578e-13
9.73717e-14
9.14291e-14
8.58015e-14
8.05361e-14
7.56761e-14
7.126e-14
6.7322e-14
6.38921e-14
6.09954e-14
5.86531e-14
5.68819e-14
5.56942e-14
5.50983e-14
5.50983e-14
5.56942e-14
5.68819e-14
5.86531e-14
6.09954e-14
6.38921e-14
6.7322e-14
7.126e-14
7.56761e-14
8.05361e-14
8.58015e-14
9.14291e-14
9.73717e-14
1.03578e-13
1.09993e-13
1.16558e-13
1.23212e-13
1.2989e-13
1.36526e-13
1.43054e-13
1.49406e-13
1.55514e-13
1.61313e-13
1.6674e-13
1.71733e-13
1.76236e-13
1.80196e-13
1.83569e-13
1.86313e-13
1.88397e-13
1.89794e-13
1.90487e-13
1.90466e-13
1.89732e-13
1.88291e-13
1.86159e-13
1.83359e-13
1.79921e-13
1.75883e-13
1.71288e-13
1.66184e-13
1.60625e-13
1.54666e-13
1.48367e-13
1.41788e-13
1.3499e-13
1.28033e-13
1.20977e-13
1.13878e-13
1.06792e-13
9.97686e-14
9.28558e-14
8.6096e-14
7.95272e-14
7.31825e-14
6.709e-14
6.12727e-14
5.57487e-14
5.05314e-14
4.56296e-14
4.10479e-14
3.67869e-14
3.28439e-14
2.92129e-14
2.58854e-14
2.28503e-14
2.0095e-14
1.76053e-14
1.53659e-14
1.33607e-14
1.15734e-14
9.98736e-15
8.58617e-15
7.35372e-15
6.27441e-15
5.33332e-15
4.51629e-15
3.80999e-15
3.20203e-15
2.68092e-15
2.23616e-15
1.85815e-15
1.53821e-15
1.26856e-15
1.04223e-15
8.53053e-16
6.95579e-16
5.65036e-16
4.57261e-16
3.68647e-16
2.96085e-16
2.36909e-16
1.88844e-16
1.49964e-16
1.18639e-16
9.35031e-17
7.34148e-17
5.74249e-17
4.47482e-17
3.47384e-17
2.6866e-17
2.06992e-17
1.58878e-17
1.21488e-17
9.25467e-18
7.0234e-18
5.30997e-18
3.99941e-18
3.00095e-18
2.24326e-18
1.67055e-18
1.23936e-18
9.16001e-19
6.74454e-19
4.94729e-19
3.61527e-19
2.63192e-19
1.90882e-19
1.37916e-19
9.92709e-20
7.11851e-20
5.08528e-20
3.61909e-20
2.56592e-20
1.81236e-20
1.27528e-20
8.93975e-21
6.24314e-21
9.97522e-21
1.42838e-20
2.03763e-20
2.89577e-20
4.09979e-20
5.78254e-20
8.1252e-20
1.13739e-19
1.58614e-19
2.2036e-19
3.04988e-19
4.20525e-19
5.77643e-19
7.90471e-19
1.07763e-18
1.46358e-18
1.98024e-18
2.66919e-18
3.58426e-18
4.79488e-18
6.39021e-18
8.48421e-18
1.12219e-17
1.4787e-17
1.94112e-17
2.53854e-17
3.3073e-17
4.29261e-17
5.55046e-17
7.14981e-17
9.17528e-17
1.17301e-16
1.49398e-16
1.8956e-16
2.3961e-16
3.01733e-16
3.7853e-16
4.73081e-16
5.8902e-16
7.30606e-16
9.02808e-16
1.11139e-15
1.363e-15
1.66526e-15
2.02689e-15
2.45774e-15
2.96892e-15
3.57291e-15
4.28355e-15
5.11616e-15
6.08755e-15
7.21607e-15
8.52152e-15
1.00252e-14
1.17497e-14
1.37189e-14
1.59577e-14
1.84918e-14
2.13476e-14
2.45514e-14
2.81295e-14
3.21075e-14
3.65099e-14
4.13593e-14
4.66761e-14
5.24776e-14
5.87777e-14
6.55858e-14
7.29064e-14
8.07384e-14
8.90746e-14
9.79007e-14
1.07196e-13
1.1693e-13
1.27068e-13
1.37563e-13
1.48364e-13
1.59409e-13
1.7063e-13
1.81953e-13
1.93295e-13
2.0457e-13
2.15685e-13
2.26548e-13
2.37059e-13
2.47124e-13
2.56644e-13
2.65527e-13
2.73681e-13
2.81023e-13
2.87476e-13
2.92968e-13
2.97443e-13
3.0085e-13
3.03152e-13
3.04325e-13
3.04357e-13
3.0325e-13
3.01018e-13
2.97689e-13
2.93304e-13
2.87916e-13
2.81587e-13
2.74392e-13
2.66415e-13
2.57744e-13
2.48478e-13
2.38718e-13
2.2857e-13
2.18139e-13
2.07536e-13
1.96866e-13
1.86235e-13
1.75746e-13
1.65496e-13
1.55579e-13
1.46084e-13
1.37093e-13
1.2868e-13
1.20914e-13
1.13858e-13
1.07566e-13
1.02086e-13
9.74577e-14
9.37153e-14
9.08852e-14
8.89875e-14
8.80353e-14
8.80353e-14
8.89875e-14
9.08852e-14
9.37153e-14
9.74577e-14
1.02086e-13
1.07566e-13
1.13858e-13
1.20914e-13
1.2868e-13
1.37093e-13
1.46084e-13
1.55579e-13
1.65496e-13
1.75746e-13
1.86235e-13
1.96866e-13
2.07536e-13
2.18139e-13
2.2857e-13
2.38718e-13
2.48478e-13
2.57744e-13
2.66415e-13
2.74392e-13
2.81587e-13
2.87916e-13
2.93304e-13
2.97689e-13
3.01018e-13
3.0325e-13
3.04357e-13
3.04325e-13
3.03152e-13
3.0085e-13
2.97443e-13
2.92968e-13
2.87476e-13
2.81023e-13
2.73681e-13
2.65527e-13
2.56644e-13
2.47124e-13
2.37059e-13
2.26548e-13
2.15685e-13
2.0457e-13
1.93295e-13
1.81953e-13
1.7063e-13
1.59409e-13
1.48364e-13
1.37563e-13
1.27068e-13
1.1693e-13
1.07196e-13
9.79007e-14
8.90746e-14
8.07384e-14
7.29064e-14
6.55858e-14
5.87777e-14
5.24776e-14
4.66761e-14
4.13593e-14
3.65099e-14
3.21075e-14
2.81295e-14
2.45514e-14
2.13476e-14
1.84918e-14
1.59577e-14
1.37189e-14
1.17497e-14
1.00252e-14
8.52152e-15
7.21607e-15
6.08755e-15
5.11616e-15
4.28355e-15
3.57291e-15
2.96892e-15
2.45774e-15
2.02689e-15
1.66526e-15
1.363e-15
1.11139e-15
9.02808e-16
7.30606e-16
5.8902e-16
4.73081e-16
3.7853e-16
3.01733e-16
2.3961e-16
1.8956e-16
1.49398e-16
1.17301e-16
9.17528e-17
7.14981e-17
5.55046e-17
4.29261e-17
3.3073e-17
2.53854e-17
1.94112e-17
1.4787e-17
1.12219e-17
8.48421e-18
6.39021e-18
4.79488e-18
3.58426e-18
2.66919e-18
1.98024e-18
1.46358e-18
1.07763e-18
7.90471e-19
5.77643e-19
4.20525e-19
3.04988e-19
2.2036e-19
1.58614e-19
1.13739e-19
8.1252e-20
5.78254e-20
4.09979e-20
2.89577e-20
2.03763e-20
1.42838e-20
9.97522e-21
1.58782e-20
2.27364e-20
3.24341e-20
4.60937e-20
6.52589e-20
9.20442e-20
1.29334e-19
1.81045e-19
2.52475e-19
3.5076e-19
4.85468e-19
6.69375e-19
9.1947e-19
1.25824e-18
1.71534e-18
2.32966e-18
3.15207e-18
4.24871e-18
5.70528e-18
7.6323e-18
1.01717e-17
1.35048e-17
1.78626e-17
2.35374e-17
3.0898e-17
4.04074e-17
5.26442e-17
6.83281e-17
8.835e-17
1.13808e-16
1.46049e-16
1.86716e-16
2.37806e-16
3.01733e-16
3.81402e-16
4.80287e-16
6.02529e-16
7.53032e-16
9.37579e-16
1.16295e-15
1.43705e-15
1.76906e-15
2.16957e-15
2.6507e-15
3.22632e-15
3.91213e-15
4.72582e-15
5.68722e-15
6.81838e-15
8.1437e-15
9.68993e-15
1.14863e-14
1.35642e-14
1.59577e-14
1.87027e-14
2.18372e-14
2.54008e-14
2.94346e-14
3.39802e-14
3.90799e-14
4.47755e-14
5.11075e-14
5.8115e-14
6.58341e-14
7.42971e-14
8.35318e-14
9.356e-14
1.04397e-13
1.1605e-13
1.28516e-13
1.41785e-13
1.55835e-13
1.7063e-13
1.86125e-13
2.02261e-13
2.18968e-13
2.3616e-13
2.53741e-13
2.71603e-13
2.89626e-13
3.07679e-13
3.25626e-13
3.43319e-13
3.60609e-13
3.77342e-13
3.93362e-13
4.08516e-13
4.22655e-13
4.35635e-13
4.47322e-13
4.57592e-13
4.66336e-13
4.73458e-13
4.78881e-13
4.82545e-13
4.84412e-13
4.84464e-13
4.82701e-13
4.79148e-13
4.7385e-13
4.6687e-13
4.58293e-13
4.48219e-13
4.36767e-13
4.24068e-13
4.10267e-13
3.95518e-13
3.79982e-13
3.63828e-13
3.47226e-13
3.30347e-13
3.13363e-13
2.96442e-13
2.79745e-13
2.6343e-13
2.47645e-13
2.32531e-13
2.18218e-13
2.04827e-13
1.92467e-13
1.81235e-13
1.7122e-13
1.62496e-13
1.55129e-13
1.49172e-13
1.44667e-13
1.41647e-13
1.40131e-13
1.40131e-13
1.41647e-13
1.44667e-13
1.49172e-13
1.55129e-13
1.62496e-13
1.7122e-13
1.81235e-13
1.92467e-13
2.04827e-13
2.18218e-13
2.32531e-13
2.47645e-13
2.6343e-13
2.79745e-13
2.96442e-13
3.13363e-13
3.30347e-13
3.47226e-13
3.63828e-13
3.79982e-13
3.95518e-13
4.10267e-13
4.24068e-13
4.36767e-13
4.48219e-13
4.58293e-13
4.6687e-13
4.7385e-13
4.79148e-13
4.82701e-13
4.84464e-13
4.84412e-13
4.82545e-13
4.78881e-13
4.73458e-13
4.66336e-13
4.57592e-13
4.47322e-13
4.35635e-13
4.22655e-13
4.08516e-13
3.93362e-13
3.77342e-13
3.60609e-13
3.43319e-13
3.25626e-13
3.07679e-13
2.89626e-13
2.71603e-13
2.53741e-13
2.3616e-13
2.18968e-13
2.02261e-13
1.86125e-13
1.7063e-13
1.55835e-13
1.41785e-13
1.28516e-13
1.1605e-13
1.04397e-13
9.356e-14
8.35318e-14
7.42971e-14
6.58341e-14
5.8115e-14
5.11075e-14
4.47755e-14
3.90799e-14
3.39802e-14
2.94346e-14
2.54008e-14
2.18372e-14
1.87027e-14
1.59577e-14
1.35642e-14
1.14863e-14
9.68993e-15
8.1437e-15
6.81838e-15
5.68722e-15
4.72582e-15
3.91213e-15
3.22632e-15
2.6507e-15
2.16957e-15
1.76906e-15
1.43705e-15
1.16295e-15
9.37579e-16
7.53032e-16
6.02529e-16
4.80287e-16
3.81402e-16
3.01733e-16
2.37806e-16
1.86716e-16
1.46049e-16
1.13808e-16
8.835e-17
6.83281e-17
5.26442e-17
4.04074e-17
3.0898e-17
2.35374e-17
1.78626e-17
1.35048e-17
1.01717e-17
7.6323e-18
5.70528e-18
4.24871e-18
3.15207e-18
2.32966e-18
1.71534e-18
1.25824e-18
9.1947e-19
6.69375e-19
4.85468e-19
3.5076e-19
2.52475e-19
1.81045e-19
1.29334e-19
9.20442e-20
6.52589e-20
4.60937e-20
3.24341e-20
2.27364e-20
1.58782e-20
2.51789e-20
3.60544e-20
5.14327e-20
7.30934e-20
1.03485e-19
1.4596e-19
2.05092e-19
2.87093e-19
4.00364e-19
5.5622e-19
7.69834e-19
1.06147e-18
1.45805e-18
1.99526e-18
2.7201e-18
3.69428e-18
4.99841e-18
6.73741e-18
9.04718e-18
1.2103e-17
1.61298e-17
2.14154e-17
2.83257e-17
3.73245e-17
4.89967e-17
6.40763e-17
8.34809e-17
1.08352e-16
1.40102e-16
1.80472e-16
2.31597e-16
2.96085e-16
3.77102e-16
4.78476e-16
6.0481e-16
7.61619e-16
9.55464e-16
1.19413e-15
1.48677e-15
1.84416e-15
2.27882e-15
2.8053e-15
3.4404e-15
4.20337e-15
5.11616e-15
6.20368e-15
7.49399e-15
9.01854e-15
1.08123e-14
1.29139e-14
1.53659e-14
1.82144e-14
2.15095e-14
2.5305e-14
2.96579e-14
3.46284e-14
4.02795e-14
4.6676e-14
5.38844e-14
6.19712e-14
7.1003e-14
8.10441e-14
9.21563e-14
1.04397e-13
1.17817e-13
1.32461e-13
1.48363e-13
1.65548e-13
1.84026e-13
2.03795e-13
2.24837e-13
2.47116e-13
2.70577e-13
2.95149e-13
3.20737e-13
3.47229e-13
3.74492e-13
4.02371e-13
4.30696e-13
4.59276e-13
4.87905e-13
5.16363e-13
5.44421e-13
5.71839e-13
5.98372e-13
6.23776e-13
6.47807e-13
6.70228e-13
6.90811e-13
7.09344e-13
7.2563e-13
7.39495e-13
7.50789e-13
7.59388e-13
7.65199e-13
7.6816e-13
7.68241e-13
7.65446e-13
7.59812e-13
7.5141e-13
7.40342e-13
7.2674e-13
7.10766e-13
6.92606e-13
6.72469e-13
6.50584e-13
6.27195e-13
6.02559e-13
5.76943e-13
5.50616e-13
5.2385e-13
4.96918e-13
4.70084e-13
4.43607e-13
4.17735e-13
3.92705e-13
3.68738e-13
3.46041e-13
3.24806e-13
3.05205e-13
2.87395e-13
2.71513e-13
2.5768e-13
2.45997e-13
2.36551e-13
2.29407e-13
2.24617e-13
2.22214e-13
2.22214e-13
2.24617e-13
2.29407e-13
2.36551e-13
2.45997e-13
2.5768e-13
2.71513e-13
2.87395e-13
3.05205e-13
3.24806e-13
3.46041e-13
3.68738e-13
3.92705e-13
4.17735e-13
4.43607e-13
4.70084e-13
4.96918e-13
5.2385e-13
5.50616e-13
5.76943e-13
6.02559e-13
6.27195e-13
6.50584e-13
6.72469e-13
6.92606e-13
7.10766e-13
7.2674e-13
7.40342e-13
7.5141e-13
7.59812e-13
7.65446e-13
7.68241e-13
7.6816e-13
7.65199e-13
7.59388e-13
7.50789e-13
7.39495e-13
7.2563e-13
7.09344e-13
6.90811e-13
6.70228e-13
6.47807e-13
6.23776e-13
5.98372e-13
5.71839e-13
5.44421e-13
5.16363e-13
4.87905e-13
4.59276e-13
4.30696e-13
4.02371e-13
3.74492e-13
3.47229e-13
3.20737e-13
2.95149e-13
2.70577e-13
2.47116e-13
2.24837e-13
2.03795e-13
1.84026e-13
1.65548e-13
1.48363e-13
1.32461e-13
1.17817e-13
1.04397e-13
9.21563e-14
8.10441e-14
7.1003e-14
6.19712e-14
5.38844e-14
4.6676e-14
4.02795e-14
3.46284e-14
2.96579e-14
2.5305e-14
2.15095e-14
1.82144e-14
1.53659e-14
1.29139e-14
1.08123e-14
9.01854e-15
7.49399e-15
6.20368e-15
5.11616e-15
4.20337e-15
3.4404e-15
2.8053e-15
2.27882e-15
1.84416e-15
1.48677e-15
1.19413e-15
9.55464e-16
7.61619e-16
6.0481e-16
4.78476e-16
3.77102e-16
2.96085e-16
2.31597e-16
1.80472e-16
1.40102e-16
1.08352e-16
8.34809e-17
6.40763e-17
4.89967e-17
3.73245e-17
2.83257e-17
2.14154e-17
1.61298e-17
1.2103e-17
9.04718e-18
6.73741e-18
4.99841e-18
3.69428e-18
2.7201e-18
1.99526e-18
1.45805e-18
1.06147e-18
7.69834e-19
5.5622e-19
4.00364e-19
2.87093e-19
2.05092e-19
1.4596e-19
1.03485e-19
7.30934e-20
5.14327e-20
3.60544e-20
2.51789e-20
3.9777e-20
5.69578e-20
8.1252e-20
1.15471e-19
1.63483e-19
2.30583e-19
3.23999e-19
4.53542e-19
6.32485e-19
8.78703e-19
1.21616e-18
1.67688e-18
2.3034e-18
3.15207e-18
4.29715e-18
5.83612e-18
7.89636e-18
1.06436e-17
1.42925e-17
1.912e-17
2.54815e-17
3.38315e-17
4.47482e-17
5.89643e-17
7.74037e-17
1.01226e-16
1.31881e-16
1.71171e-16
2.21329e-16
2.85105e-16
3.65872e-16
4.67748e-16
5.95736e-16
7.55884e-16
9.55464e-16
1.20319e-15
1.50942e-15
1.88645e-15
2.34877e-15
2.91335e-15
3.60002e-15
4.43175e-15
5.43506e-15
6.64037e-15
8.08238e-15
9.80041e-15
1.18388e-14
1.42473e-14
1.7081e-14
2.04011e-14
2.42746e-14
2.87746e-14
3.39802e-14
3.99762e-14
4.68528e-14
5.47051e-14
6.36325e-14
7.37376e-14
8.51252e-14
9.79006e-14
1.12169e-13
1.28031e-13
1.45586e-13
1.64923e-13
1.86124e-13
2.09259e-13
2.34381e-13
2.61528e-13
2.9072e-13
3.21951e-13
3.55192e-13
3.90387e-13
4.27451e-13
4.66268e-13
5.06692e-13
5.48544e-13
5.91613e-13
6.35656e-13
6.80403e-13
7.25552e-13
7.70779e-13
8.15738e-13
8.60062e-13
9.03376e-13
9.45293e-13
9.85426e-13
1.02339e-12
1.05881e-12
1.09133e-12
1.1206e-12
1.14633e-12
1.16824e-12
1.18608e-12
1.19966e-12
1.20884e-12
1.21352e-12
1.21365e-12
1.20923e-12
1.20033e-12
1.18706e-12
1.16957e-12
1.14809e-12
1.12285e-12
1.09416e-12
1.06235e-12
1.02778e-12
9.90827e-13
9.51908e-13
9.11439e-13
8.69849e-13
8.27566e-13
7.85019e-13
7.42627e-13
7.00799e-13
6.59928e-13
6.20385e-13
5.82523e-13
5.46667e-13
5.1312e-13
4.82155e-13
4.54019e-13
4.28929e-13
4.07076e-13
3.8862e-13
3.73697e-13
3.62412e-13
3.54845e-13
3.51048e-13
3.51048e-13
3.54845e-13
3.62412e-13
3.73697e-13
3.8862e-13
4.07076e-13
4.28929e-13
4.54019e-13
4.82155e-13
5.1312e-13
5.46667e-13
5.82523e-13
6.20385e-13
6.59928e-13
7.00799e-13
7.42627e-13
7.85019e-13
8.27566e-13
8.69849e-13
9.11439e-13
9.51908e-13
9.90827e-13
1.02778e-12
1.06235e-12
1.09416e-12
1.12285e-12
1.14809e-12
1.16957e-12
1.18706e-12
1.20033e-12
1.20923e-12
1.21365e-12
1.21352e-12
1.20884e-12
1.19966e-12
1.18608e-12
1.16824e-12
1.14633e-12
1.1206e-12
1.09133e-12
1.05881e-12
1.02339e-12
9.85426e-13
9.45293e-13
9.03376e-13
8.60062e-13
8.15738e-13
7.70779e-13
7.25552e-13
6.80403e-13
6.35656e-13
5.91613e-13
5.48544e-13
5.06692e-13
4.66268e-13
4.27451e-13
3.90387e-13
3.55192e-13
3.21951e-13
2.9072e-13
2.61528e-13
2.34381e-13
2.09259e-13
1.86124e-13
1.64923e-13
1.45586e-13
1.28031e-13
1.12169e-13
9.79006e-14
8.51252e-14
7.37376e-14
6.36325e-14
5.47051e-14
4.68528e-14
3.99762e-14
3.39802e-14
2.87746e-14
2.42746e-14
2.04011e-14
1.7081e-14
1.42473e-14
1.18388e-14
9.80041e-15
8.08238e-15
6.64037e-15
5.43506e-15
4.43175e-15
3.60002e-15
2.91335e-15
2.34877e-15
1.88645e-15
1.50942e-15
1.20319e-15
9.55464e-16
7.55884e-16
5.95736e-16
4.67748e-16
3.65872e-16
2.85105e-16
2.21329e-16
1.71171e-16
1.31881e-16
1.01226e-16
7.74037e-17
5.89643e-17
4.47482e-17
3.38315e-17
2.54815e-17
1.912e-17
1.42925e-17
1.06436e-17
7.89636e-18
5.83612e-18
4.29715e-18
3.15207e-18
2.3034e-18
1.67688e-18
1.21616e-18
8.78703e-19
6.32485e-19
4.53542e-19
3.23999e-19
2.30583e-19
1.63483e-19
1.15471e-19
8.1252e-20
5.69578e-20
3.9777e-20
6.26016e-20
8.96412e-20
1.27876e-19
1.8173e-19
2.57291e-19
3.62896e-19
5.09914e-19
7.13792e-19
9.95415e-19
1.38292e-18
1.91402e-18
2.6391e-18
3.62512e-18
4.96077e-18
6.76292e-18
9.18498e-18
1.24274e-17
1.67511e-17
2.24938e-17
3.00913e-17
4.01032e-17
5.32445e-17
7.04254e-17
9.2799e-17
1.21819e-16
1.59311e-16
2.07557e-16
2.69392e-16
3.48331e-16
4.48702e-16
5.75815e-16
7.36149e-16
9.37579e-16
1.18962e-15
1.50372e-15
1.89359e-15
2.37555e-15
2.96892e-15
3.69652e-15
4.58508e-15
5.66576e-15
6.97476e-15
8.55378e-15
1.04507e-14
1.27202e-14
1.5424e-14
1.86321e-14
2.24226e-14
2.68823e-14
3.21075e-14
3.82038e-14
4.5286e-14
5.34786e-14
6.29152e-14
7.37376e-14
8.60958e-14
1.00146e-13
1.16049e-13
1.33971e-13
1.54078e-13
1.76533e-13
2.01498e-13
2.29126e-13
2.59559e-13
2.92926e-13
3.29334e-13
3.68872e-13
4.11598e-13
4.5754e-13
5.06691e-13
5.59007e-13
6.14397e-13
6.72729e-13
7.3382e-13
7.9744e-13
8.63307e-13
9.31089e-13
1.00041e-12
1.07083e-12
1.14189e-12
1.21306e-12
1.28382e-12
1.35358e-12
1.42175e-12
1.48772e-12
1.55088e-12
1.61063e-12
1.66637e-12
1.71755e-12
1.76362e-12
1.80411e-12
1.83859e-12
1.86667e-12
1.88805e-12
1.9025e-12
1.90986e-12
1.91006e-12
1.90311e-12
1.8891e-12
1.86821e-12
1.84069e-12
1.80688e-12
1.76716e-12
1.72201e-12
1.67194e-12
1.61753e-12
1.55938e-12
1.49813e-12
1.43444e-12
1.36898e-12
1.30244e-12
1.23547e-12
1.16876e-12
1.10293e-12
1.0386e-12
9.76372e-13
9.16783e-13
8.60354e-13
8.07557e-13
7.58824e-13
7.14542e-13
6.75056e-13
6.40662e-13
6.11617e-13
5.8813e-13
5.7037e-13
5.5846e-13
5.52485e-13
5.52485e-13
5.5846e-13
5.7037e-13
5.8813e-13
6.11617e-13
6.40662e-13
6.75056e-13
7.14542e-13
7.58824e-13
8.07557e-13
8.60354e-13
9.16783e-13
9.76372e-13
1.0386e-12
1.10293e-12
1.16876e-12
1.23547e-12
1.30244e-12
1.36898e-12
1.43444e-12
1.49813e-12
1.55938e-12
1.61753e-12
1.67194e-12
1.72201e-12
1.76716e-12
1.80688e-12
1.84069e-12
1.86821e-12
1.8891e-12
1.90311e-12
1.91006e-12
1.90986e-12
1.9025e-12
1.88805e-12
1.86667e-12
1.83859e-12
1.80411e-12
1.76362e-12
1.71755e-12
1.66637e-12
1.61063e-12
1.55088e-12
1.48772e-12
1.42175e-12
1.35358e-12
1.28382e-12
1.21306e-12
1.14189e-12
1.07083e-12
1.00041e-12
9.31089e-13
8.63307e-13
7.9744e-13
7.3382e-13
6.72729e-13
6.14397e-13
5.59007e-13
5.06691e-13
4.5754e-13
4.11598e-13
3.68872e-13
3.29334e-13
2.92926e-13
2.59559e-13
2.29126e-13
2.01498e-13
1.76533e-13
1.54078e-13
1.33971e-13
1.16049e-13
1.00146e-13
8.60958e-14
7.37376e-14
6.29152e-14
5.34786e-14
4.5286e-14
3.82038e-14
3.21075e-14
2.68823e-14
2.24226e-14
1.86321e-14
1.5424e-14
1.27202e-14
1.04507e-14
8.55378e-15
6.97476e-15
5.66576e-15
4.58508e-15
3.69652e-15
2.96892e-15
2.37555e-15
1.89359e-15
1.50372e-15
1.18962e-15
9.37579e-16
7.36149e-16
5.75815e-16
4.48702e-16
3.48331e-16
2.69392e-16
2.07557e-16
1.59311e-16
1.21819e-16
9.2799e-17
7.04254e-17
5.32445e-17
4.01032e-17
3.00913e-17
2.24938e-17
1.67511e-17
1.24274e-17
9.18498e-18
6.76292e-18
4.96077e-18
3.62512e-18
2.6391e-18
1.91402e-18
1.38292e-18
9.95415e-19
7.13792e-19
5.09914e-19
3.62896e-19
2.57291e-19
1.8173e-19
1.27876e-19
8.96412e-20
6.26016e-20
9.81518e-20
1.40547e-19
2.00494e-19
2.84931e-19
4.03402e-19
5.68977e-19
7.99484e-19
1.11914e-18
1.56069e-18
2.16825e-18
3.00095e-18
4.13778e-18
5.68376e-18
7.77789e-18
1.06034e-17
1.44009e-17
1.94847e-17
2.62636e-17
3.52675e-17
4.71795e-17
6.28769e-17
8.34809e-17
1.10419e-16
1.45498e-16
1.90998e-16
2.49781e-16
3.25424e-16
4.22374e-16
5.46141e-16
7.0351e-16
9.02808e-16
1.15419e-15
1.47001e-15
1.86518e-15
2.35766e-15
2.96892e-15
3.72457e-15
4.65492e-15
5.7957e-15
7.18885e-15
8.88323e-15
1.09356e-14
1.34113e-14
1.63855e-14
1.99437e-14
2.4183e-14
2.92129e-14
3.51559e-14
4.21482e-14
5.03408e-14
5.98989e-14
7.1003e-14
8.3848e-14
9.86434e-14
1.15612e-13
1.34988e-13
1.57017e-13
1.81952e-13
2.10051e-13
2.41575e-13
2.76782e-13
3.15924e-13
3.59242e-13
4.06957e-13
4.59272e-13
5.16357e-13
5.78347e-13
6.45335e-13
7.17367e-13
7.94431e-13
8.76455e-13
9.633e-13
1.05476e-12
1.15054e-12
1.25029e-12
1.35356e-12
1.45984e-12
1.56852e-12
1.67893e-12
1.79034e-12
1.90194e-12
2.01288e-12
2.12225e-12
2.22913e-12
2.33256e-12
2.43159e-12
2.52527e-12
2.61267e-12
2.6929e-12
2.76515e-12
2.82863e-12
2.88268e-12
2.92671e-12
2.96023e-12
2.98288e-12
2.99442e-12
2.99474e-12
2.98384e-12
2.96188e-12
2.92913e-12
2.88598e-12
2.83296e-12
2.77069e-12
2.6999e-12
2.6214e-12
2.53609e-12
2.44492e-12
2.34888e-12
2.24903e-12
2.1464e-12
2.04206e-12
1.93708e-12
1.83247e-12
1.72926e-12
1.62841e-12
1.53083e-12
1.43741e-12
1.34893e-12
1.26615e-12
1.18974e-12
1.12032e-12
1.05841e-12
1.00448e-12
9.58942e-13
9.22117e-13
8.94271e-13
8.75598e-13
8.66229e-13
8.66229e-13
8.75598e-13
8.94271e-13
9.22117e-13
9.58942e-13
1.00448e-12
1.05841e-12
1.12032e-12
1.18974e-12
1.26615e-12
1.34893e-12
1.43741e-12
1.53083e-12
1.62841e-12