/*--------------------------------*- C++ -*----------------------------------*\
| =========                 |                                                 |
| \\      /  F ield         | OpenFOAM: The Open Source CFD Toolbox           |
|  \\    /   O peration     | Version:  2212                                  |
|   \\  /    A nd           | Website:  www.openfoam.com                      |
|    \\/     M anipulation  |                                                 |
\*---------------------------------------------------------------------------*/
FoamFile
{
    version     2.0;
    format      ascii;
    arch        "LSB;label=32;scalar=64";
    class       volScalarField;
    location    "13";
    object      p;
}
// * * * * * * * * * * * * * * * * * * * * * * * * * * * * * * * * * * * * * //

dimensions      [0 2 -2 0 0 0 0];

internalField   nonuniform List<scalar> 
400
(
3.0265e-07
-0.000150711
-0.000534797
-0.001072
-0.00173273
-0.00249422
-0.00318535
-0.00359792
-0.0035657
-0.00293443
-0.00154887
0.0006191
0.00324932
0.00551384
0.0065335
0.0059226
0.00400178
0.00214934
0.00111034
0.00104128
0.000116174
-5.82438e-05
-0.000377192
-0.000764369
-0.00124429
-0.00188842
-0.00270655
-0.00354388
-0.00408037
-0.00393879
-0.00284679
-0.00082519
0.00168908
0.00396065
0.00512443
0.00474281
0.00310269
0.00137444
0.000592847
0.000683891
0.000536291
0.00026482
-7.74744e-05
-0.000559835
-0.00134755
-0.00258095
-0.00421954
-0.00598423
-0.00740304
-0.00794436
-0.00726466
-0.00546244
-0.00289205
-0.000195025
0.00179139
0.00242739
0.00170844
0.000501739
-0.000396453
-0.000393162
0.00115181
0.000741118
0.000191726
-0.000775017
-0.00245142
-0.00493823
-0.00799564
-0.0111211
-0.0137039
-0.0151775
-0.0152074
-0.0138404
-0.0112941
-0.00802959
-0.00475276
-0.00221025
-0.000870935
-0.000706778
-0.00128939
-0.00191871
0.00158321
0.000973601
-2.30331e-05
-0.00192435
-0.00500704
-0.00918057
-0.0139143
-0.0184804
-0.0222168
-0.0246535
-0.0255292
-0.0247234
-0.022364
-0.018744
-0.0143052
-0.00965625
-0.00559266
-0.00294946
-0.00219382
-0.00401854
0.00129327
0.000444912
-0.00119752
-0.00430469
-0.00900548
-0.0148812
-0.0210734
-0.026716
-0.031192
-0.0341793
-0.0355461
-0.0351901
-0.0331974
-0.0297192
-0.0248999
-0.0189615
-0.0125058
-0.0069489
-0.00440144
-0.00652475
-4.84117e-05
-0.00114768
-0.00349966
-0.00779718
-0.013933
-0.021115
-0.0282369
-0.0344085
-0.0391294
-0.0422328
-0.0437205
-0.0436112
-0.0419733
-0.0388793
-0.0343113
-0.0281576
-0.0205395
-0.0127033
-0.00785532
-0.00774851
-0.0024506
-0.00374233
-0.00669884
-0.0119138
-0.0190404
-0.0269825
-0.0345049
-0.04078
-0.0454517
-0.0484779
-0.0499406
-0.0499319
-0.0485311
-0.0457891
-0.0416629
-0.0359272
-0.0283261
-0.0193715
-0.0118228
-0.00798102
-0.00553778
-0.00691539
-0.0102639
-0.0160224
-0.0236587
-0.0318902
-0.0394521
-0.0456138
-0.0501384
-0.0530585
-0.0544877
-0.0545278
-0.0532535
-0.0507265
-0.0469628
-0.0418126
-0.0348683
-0.0259482
-0.0167096
-0.00999499
-0.00873393
-0.0100861
-0.013598
-0.0195426
-0.027287
-0.0354878
-0.0429129
-0.0489107
-0.0533105
-0.0561685
-0.0575924
-0.0576637
-0.0564452
-0.054012
-0.0504519
-0.0457611
-0.0396346
-0.0315245
-0.0223217
-0.0143403
-0.0115043
-0.0127581
-0.0162195
-0.0220547
-0.0296076
-0.0375893
-0.0448272
-0.0507002
-0.0550437
-0.0578952
-0.0593375
-0.059429
-0.0582197
-0.0557897
-0.0522875
-0.0478529
-0.0424316
-0.0353831
-0.0271984
-0.0191798
-0.0135495
-0.0146189
-0.0178561
-0.0233158
-0.0304314
-0.0380633
-0.0451184
-0.0509504
-0.0553298
-0.0582413
-0.059729
-0.0598314
-0.0585893
-0.0560838
-0.0525162
-0.0481386
-0.0432073
-0.0370567
-0.0300323
-0.0224176
-0.0148375
-0.015568
-0.018352
-0.0232105
-0.0296937
-0.0368792
-0.0437651
-0.0496407
-0.0541555
-0.0572017
-0.0587707
-0.0588778
-0.0575585
-0.0549165
-0.0511777
-0.0466563
-0.0419658
-0.0363004
-0.0302264
-0.0228962
-0.0154679
-0.0157222
-0.0177774
-0.0217464
-0.0273898
-0.0340318
-0.0407508
-0.0467409
-0.0514933
-0.0547688
-0.0564827
-0.0566237
-0.055202
-0.0523534
-0.0483465
-0.0435821
-0.0387309
-0.0331416
-0.0280998
-0.0202794
-0.0155744
-0.0152982
-0.0163381
-0.0190878
-0.0236532
-0.0296343
-0.0361718
-0.0423361
-0.047428
-0.0510398
-0.0529806
-0.0531839
-0.0516913
-0.0485917
-0.0442269
-0.039054
-0.0337819
-0.0280717
-0.0242316
-0.014385
-0.0152768
-0.0145501
-0.0142608
-0.015426
-0.0186849
-0.0238947
-0.0302315
-0.0366149
-0.0421381
-0.0462015
-0.0484896
-0.0488667
-0.0473534
-0.0440211
-0.039249
-0.033519
-0.0276413
-0.0216293
-0.0180535
-0.00383291
-0.0146621
-0.0136182
-0.0117069
-0.0110811
-0.0129537
-0.0173803
-0.0235341
-0.0301705
-0.0361934
-0.0408117
-0.0435789
-0.0442619
-0.0428508
-0.0393765
-0.0341854
-0.0276898
-0.0206822
-0.0132761
-0.00678573
0.016053
-0.0145832
-0.0126572
-0.00864848
-0.00623462
-0.00691008
-0.0107458
-0.0168179
-0.02374
-0.0302988
-0.0355394
-0.0389038
-0.0400352
-0.0388777
-0.0354481
-0.0298959
-0.0222758
-0.0128726
-0.000688084
0.0166951
0.0570639
-0.0117946
-0.0118307
-0.00572611
-0.00177502
-0.00176499
-0.00540474
-0.0115752
-0.018815
-0.0258756
-0.0316876
-0.0356624
-0.037362
-0.0366854
-0.0333554
-0.0272242
-0.0175415
-0.00314818
0.0204904
0.0607045
0.129821
-0.0295168
-0.0106297
-0.000608866
0.00308082
0.00244825
-0.00155701
-0.00799948
-0.0155534
-0.0229762
-0.0291739
-0.033532
-0.0355881
-0.0352013
-0.0319558
-0.0252277
-0.01286
0.00942267
0.0511716
0.122878
0.226076
)
;

boundaryField
{
    movingWall
    {
        type            zeroGradient;
    }
    fixedWalls
    {
        type            zeroGradient;
    }
    frontAndBack
    {
        type            empty;
    }
}


// ************************************************************************* //
