/*--------------------------------*- C++ -*----------------------------------*\
| =========                 |                                                 |
| \\      /  F ield         | OpenFOAM: The Open Source CFD Toolbox           |
|  \\    /   O peration     | Version:  2212                                  |
|   \\  /    A nd           | Website:  www.openfoam.com                      |
|    \\/     M anipulation  |                                                 |
\*---------------------------------------------------------------------------*/
FoamFile
{
    version     2.0;
    format      ascii;
    arch        "LSB;label=32;scalar=64";
    class       volScalarField;
    location    "13";
    object      T;
}
// * * * * * * * * * * * * * * * * * * * * * * * * * * * * * * * * * * * * * //

dimensions      [0 0 0 1 0 0 0];

internalField   nonuniform List<scalar> 
400
(
0.94257
0.943814
0.946343
0.950083
0.954439
0.958404
0.961235
0.962873
0.963753
0.964349
0.964889
0.965447
0.966043
0.966657
0.967194
0.967497
0.96731
0.966363
0.964803
0.963525
0.944167
0.945692
0.948749
0.95312
0.957739
0.961133
0.962789
0.963368
0.96357
0.963722
0.964025
0.9646
0.965484
0.966629
0.967802
0.96865
0.968627
0.967324
0.965281
0.963809
0.946662
0.948709
0.952505
0.957074
0.960665
0.962189
0.962149
0.961451
0.960573
0.959909
0.959799
0.96048
0.961962
0.964199
0.966786
0.969128
0.97023
0.9691
0.96616
0.964335
0.949106
0.951691
0.955828
0.959534
0.961125
0.960464
0.958522
0.956045
0.953595
0.951783
0.951076
0.951864
0.95405
0.957682
0.962262
0.967076
0.970802
0.971696
0.968431
0.965572
0.950987
0.953882
0.957701
0.959785
0.959035
0.956037
0.95184
0.947211
0.942979
0.939891
0.938497
0.939251
0.942033
0.946944
0.95354
0.96111
0.968321
0.973115
0.972522
0.967873
0.952229
0.955112
0.958081
0.958195
0.955036
0.949633
0.943083
0.936355
0.930489
0.926278
0.924279
0.924855
0.927995
0.933757
0.941854
0.951677
0.962066
0.971095
0.975572
0.971243
0.952923
0.955505
0.957321
0.955447
0.950049
0.942423
0.933778
0.925333
0.918249
0.913297
0.910935
0.911352
0.914605
0.920719
0.929589
0.940844
0.953547
0.965925
0.975133
0.976076
0.953222
0.955362
0.956024
0.952412
0.945093
0.935572
0.925252
0.915569
0.907721
0.902395
0.899895
0.900248
0.903466
0.909545
0.918514
0.930341
0.944523
0.959469
0.972237
0.978664
0.953253
0.954916
0.954568
0.949573
0.940768
0.929835
0.918345
0.907868
0.899586
0.894086
0.891529
0.891856
0.895005
0.900905
0.909577
0.921237
0.936029
0.952906
0.968521
0.977505
0.953115
0.954383
0.953345
0.947489
0.937729
0.92586
0.913605
0.902618
0.894051
0.888403
0.885745
0.885997
0.889069
0.894817
0.903129
0.914218
0.928799
0.946837
0.965162
0.976629
0.952866
0.953857
0.952435
0.946173
0.935956
0.923661
0.911086
0.899882
0.891147
0.885327
0.882476
0.882543
0.885455
0.89104
0.899033
0.909437
0.923234
0.94158
0.962038
0.97607
0.952538
0.953397
0.95196
0.945855
0.935771
0.923566
0.911055
0.899846
0.891001
0.884973
0.881854
0.881626
0.884237
0.889521
0.897131
0.906802
0.919455
0.937427
0.959538
0.975765
0.952126
0.952975
0.951768
0.946223
0.936763
0.925139
0.913124
0.902244
0.893514
0.887406
0.884056
0.883471
0.885633
0.89039
0.897389
0.906213
0.917473
0.934386
0.957565
0.975731
0.951602
0.952563
0.95184
0.947302
0.939031
0.928538
0.917483
0.907279
0.898891
0.89282
0.889267
0.888237
0.889775
0.893729
0.899795
0.907498
0.917189
0.932619
0.956291
0.975918
0.950914
0.952054
0.951806
0.948366
0.941576
0.932648
0.923045
0.914012
0.906413
0.900726
0.897187
0.895793
0.896615
0.899538
0.904322
0.910645
0.918663
0.932106
0.955627
0.976332
0.950099
0.951467
0.951836
0.949673
0.944683
0.937729
0.929996
0.92252
0.916041
0.910986
0.907585
0.905876
0.905877
0.907562
0.910787
0.9154
0.921603
0.932652
0.955606
0.976983
0.949288
0.950633
0.951194
0.94995
0.946617
0.941754
0.936189
0.930683
0.925773
0.921794
0.918893
0.917155
0.916525
0.917069
0.918778
0.921631
0.926203
0.935152
0.956947
0.978091
0.948715
0.950329
0.951357
0.95089
0.94903
0.94611
0.942614
0.939007
0.935626
0.932726
0.9304
0.928755
0.927778
0.927534
0.928178
0.929647
0.93301
0.939894
0.959457
0.979488
0.941028
0.948651
0.948666
0.948434
0.947436
0.946091
0.944547
0.943109
0.941786
0.94081
0.940096
0.939774
0.939796
0.940137
0.941056
0.942231
0.94524
0.950478
0.965323
0.981882
0.958573
0.963587
0.966276
0.967892
0.968762
0.96931
0.969601
0.969896
0.970106
0.970428
0.970714
0.971142
0.97154
0.972078
0.972597
0.973316
0.974232
0.976162
0.980005
0.986781
)
;

boundaryField
{
    movingWall
    {
        type            fixedValue;
        value           uniform 1;
    }
    fixedWalls
    {
        type            zeroGradient;
    }
    frontAndBack
    {
        type            empty;
    }
}


// ************************************************************************* //
