/*--------------------------------*- C++ -*----------------------------------*\
| =========                 |                                                 |
| \\      /  F ield         | OpenFOAM: The Open Source CFD Toolbox           |
|  \\    /   O peration     | Version:  2212                                  |
|   \\  /    A nd           | Website:  www.openfoam.com                      |
|    \\/     M anipulation  |                                                 |
\*---------------------------------------------------------------------------*/
FoamFile
{
    version     2.0;
    format      ascii;
    arch        "LSB;label=32;scalar=64";
    class       surfaceScalarField;
    location    "4.1";
    object      phi;
}
// * * * * * * * * * * * * * * * * * * * * * * * * * * * * * * * * * * * * * //

dimensions      [0 3 -1 0 0 0 0];

oriented        oriented;

internalField   nonuniform List<scalar> 
760
(
1.53651e-07
-1.5365e-07
2.88393e-07
-1.34742e-07
3.03539e-07
-1.51453e-08
1.7741e-07
1.26128e-07
-1.24863e-07
3.02273e-07
-6.66295e-07
5.41432e-07
-1.47856e-06
8.12268e-07
-2.47605e-06
9.97485e-07
-3.45936e-06
9.83317e-07
-4.19724e-06
7.37875e-07
-4.52278e-06
3.25541e-07
-4.33896e-06
-1.83821e-07
-3.58834e-06
-7.50618e-07
-2.38375e-06
-1.20459e-06
-9.536e-07
-1.43015e-06
3.29142e-07
-1.28274e-06
1.07327e-06
-7.4413e-07
1.02321e-06
5.00663e-08
4.57546e-07
5.6566e-07
4.57547e-07
1.20914e-07
-2.74564e-07
6.72476e-08
-8.10762e-08
-3.03517e-07
3.55619e-07
-1.0799e-06
9.02507e-07
-2.30658e-06
1.52895e-06
-3.90457e-06
2.13942e-06
-5.62689e-06
2.53459e-06
-7.16323e-06
2.53382e-06
-8.28953e-06
2.10962e-06
-8.89551e-06
1.34385e-06
-8.93373e-06
3.63758e-07
-8.3811e-06
-7.36443e-07
-7.26869e-06
-1.86303e-06
-5.62884e-06
-2.84444e-06
-3.60433e-06
-3.45466e-06
-1.498e-06
-3.38907e-06
1.65322e-07
-2.40745e-06
8.48311e-07
-6.32923e-07
5.21426e-07
8.92545e-07
9.78974e-07
-1.30514e-07
-1.4405e-07
-6.36129e-07
4.24539e-07
-1.62046e-06
1.33995e-06
-3.12419e-06
2.40624e-06
-5.0241e-06
3.42886e-06
-7.02506e-06
4.14038e-06
-8.81437e-06
4.32391e-06
-1.02118e-05
3.93129e-06
-1.1165e-05
3.06276e-06
-1.16659e-05
1.84477e-06
-1.1664e-05
3.61856e-07
-1.12107e-05
-1.18972e-06
-1.02866e-05
-2.78713e-06
-8.83729e-06
-4.29377e-06
-6.84229e-06
-5.44966e-06
-4.38985e-06
-5.84152e-06
-1.87715e-06
-4.92014e-06
-9.08892e-08
-2.41918e-06
2.92663e-07
5.08993e-07
1.27164e-06
-4.98773e-07
3.54723e-07
-1.55166e-06
1.47742e-06
-3.09825e-06
2.88654e-06
-5.04334e-06
4.35133e-06
-7.1308e-06
5.51632e-06
-9.0559e-06
6.06548e-06
-1.06168e-05
5.88485e-06
-1.177e-05
5.08441e-06
-1.25428e-05
3.83563e-06
-1.29703e-05
2.27222e-06
-1.30382e-05
4.29771e-07
-1.28033e-05
-1.42458e-06
-1.22281e-05
-3.36232e-06
-1.12106e-05
-5.31129e-06
-9.61953e-06
-7.04075e-06
-7.33018e-06
-8.13087e-06
-4.38074e-06
-7.86958e-06
-1.37583e-06
-5.42409e-06
1.18764e-07
-9.85603e-07
1.3904e-06
-8.55176e-07
1.2099e-06
-2.34231e-06
2.96456e-06
-4.19692e-06
4.74115e-06
-6.22724e-06
6.38165e-06
-8.15546e-06
7.44454e-06
-9.75992e-06
7.66994e-06
-1.09628e-05
7.08775e-06
-1.17897e-05
5.91129e-06
-1.23023e-05
4.34826e-06
-1.25738e-05
2.54371e-06
-1.26947e-05
5.50618e-07
-1.26533e-05
-1.46589e-06
-1.24401e-05
-3.57559e-06
-1.19751e-05
-5.77625e-06
-1.10717e-05
-7.94422e-06
-9.44184e-06
-9.7607e-06
-6.78771e-06
-1.05237e-05
-3.20873e-06
-9.00307e-06
-2.62223e-07
-3.93211e-06
1.12818e-06
-1.07596e-06
2.28586e-06
-2.75774e-06
4.64634e-06
-4.63457e-06
6.61798e-06
-6.47742e-06
8.2245e-06
-8.06372e-06
9.03084e-06
-9.26194e-06
8.86816e-06
-1.00665e-05
7.89227e-06
-1.05416e-05
6.38643e-06
-1.07778e-05
4.58446e-06
-1.08758e-05
2.64167e-06
-1.09574e-05
6.32224e-07
-1.10119e-05
-1.41132e-06
-1.10542e-05
-3.53338e-06
-1.10539e-05
-5.77652e-06
-1.08561e-05
-8.14204e-06
-1.01325e-05
-1.04843e-05
-8.38999e-06
-1.22662e-05
-5.21589e-06
-1.21772e-05
-1.15382e-06
-7.99418e-06
-2.56404e-08
-1.098e-06
3.38386e-06
-2.72979e-06
6.27814e-06
-4.41239e-06
8.30057e-06
-5.93541e-06
9.74752e-06
-7.13936e-06
1.02348e-05
-7.96061e-06
9.68941e-06
-8.4352e-06
8.36686e-06
-8.64952e-06
6.60075e-06
-8.70764e-06
4.64258e-06
-8.70813e-06
2.64217e-06
-8.73552e-06
6.59616e-07
-8.80988e-06
-1.33696e-06
-8.95075e-06
-3.39251e-06
-9.16874e-06
-5.55854e-06
-9.40502e-06
-7.90576e-06
-9.42561e-06
-1.04637e-05
-8.71031e-06
-1.29815e-05
-6.50469e-06
-1.43828e-05
-2.40996e-06
-1.20889e-05
-2.4356e-06
-9.24118e-07
4.30797e-06
-2.32166e-06
7.67568e-06
-3.69656e-06
9.67547e-06
-4.86564e-06
1.09166e-05
-5.72771e-06
1.10969e-05
-6.26449e-06
1.02262e-05
-6.5317e-06
8.63408e-06
-6.62004e-06
6.68908e-06
-6.62669e-06
4.64924e-06
-6.62655e-06
2.64203e-06
-6.65748e-06
6.90549e-07
-6.73752e-06
-1.25693e-06
-6.8882e-06
-3.24183e-06
-7.13989e-06
-5.30685e-06
-7.50809e-06
-7.53755e-06
-7.89843e-06
-1.00733e-05
-7.89761e-06
-1.29823e-05
-6.68816e-06
-1.55922e-05
-3.56606e-06
-1.5211e-05
-6.00166e-06
-6.1643e-07
4.9244e-06
-1.66818e-06
8.72743e-06
-2.69213e-06
1.06994e-05
-3.52343e-06
1.17479e-05
-4.10595e-06
1.16794e-05
-4.44871e-06
1.0569e-05
-4.60965e-06
8.79502e-06
-4.66729e-06
6.74672e-06
-4.69507e-06
4.67702e-06
-4.73827e-06
2.68522e-06
-4.8081e-06
7.60384e-07
-4.91176e-06
-1.15326e-06
-5.05976e-06
-3.09383e-06
-5.28126e-06
-5.08535e-06
-5.63114e-06
-7.18768e-06
-6.12058e-06
-9.58389e-06
-6.52645e-06
-1.25765e-05
-6.10511e-06
-1.60136e-05
-3.90739e-06
-1.74087e-05
-9.90905e-06
-2.2834e-07
5.15274e-06
-8.81944e-07
9.38103e-06
-1.54734e-06
1.13648e-05
-2.07146e-06
1.2272e-05
-2.4259e-06
1.20338e-05
-2.63433e-06
1.07774e-05
-2.74465e-06
8.90533e-06
-2.81037e-06
6.81244e-06
-2.87709e-06
4.74374e-06
-2.96773e-06
2.77586e-06
-3.08536e-06
8.78013e-07
-3.23007e-06
-1.00855e-06
-3.40257e-06
-2.92132e-06
-3.61587e-06
-4.87205e-06
-3.92215e-06
-6.88141e-06
-4.40284e-06
-9.10319e-06
-5.00093e-06
-1.19784e-05
-5.10922e-06
-1.59053e-05
-3.54872e-06
-1.89692e-05
-1.34578e-05
1.62854e-07
4.98989e-06
-6.7481e-08
9.61137e-06
-3.97036e-07
1.16944e-05
-6.44924e-07
1.25199e-05
-7.9655e-07
1.21855e-05
-8.82773e-07
1.08636e-05
-9.4322e-07
8.96578e-06
-1.01012e-06
6.87934e-06
-1.10044e-06
4.83406e-06
-1.22194e-06
2.89736e-06
-1.37685e-06
1.03292e-06
-1.56738e-06
-8.18018e-07
-1.79271e-06
-2.696e-06
-2.05151e-06
-4.61324e-06
-2.37281e-06
-6.56011e-06
-2.85068e-06
-8.62533e-06
-3.54646e-06
-1.12826e-05
-4.01835e-06
-1.54334e-05
-3.02123e-06
-1.99664e-05
-1.6479e-05
4.95936e-07
4.49395e-06
6.92593e-07
9.41471e-06
7.35768e-07
1.16512e-05
7.71969e-07
1.24837e-05
8.18054e-07
1.21394e-05
8.48205e-07
1.08335e-05
8.42121e-07
8.97187e-06
7.91288e-07
6.93017e-06
6.97431e-07
4.92792e-06
5.62717e-07
3.03207e-06
3.82769e-07
1.21287e-06
1.51331e-07
-5.86579e-07
-1.33794e-07
-2.41088e-06
-4.79455e-07
-4.26758e-06
-8.91266e-07
-6.1483e-06
-1.4163e-06
-8.10029e-06
-2.20162e-06
-1.04973e-05
-2.95544e-06
-1.46796e-05
-2.46183e-06
-2.046e-05
-1.89408e-05
7.47742e-07
3.74621e-06
1.34048e-06
8.82197e-06
1.73047e-06
1.12612e-05
2.05829e-06
1.21559e-05
2.33077e-06
1.18669e-05
2.51674e-06
1.06475e-05
2.60712e-06
8.88149e-06
2.6125e-06
6.92479e-06
2.54763e-06
4.99278e-06
2.42077e-06
3.15894e-06
2.22569e-06
1.40795e-06
1.94852e-06
-3.09407e-07
1.58828e-06
-2.05063e-06
1.13997e-06
-3.81928e-06
5.98204e-07
-5.60653e-06
-9.06301e-08
-7.41146e-06
-9.65395e-07
-9.62251e-06
-1.92906e-06
-1.37159e-05
-1.92991e-06
-2.04591e-05
-2.08707e-05
8.60132e-07
2.88608e-06
1.79092e-06
7.89118e-06
2.52697e-06
1.05252e-05
3.16393e-06
1.15189e-05
3.70872e-06
1.13221e-05
4.11724e-06
1.0239e-05
4.37264e-06
8.62608e-06
4.48876e-06
6.80868e-06
4.48947e-06
4.99207e-06
4.39113e-06
3.25727e-06
4.19266e-06
1.60642e-06
3.86672e-06
1.65366e-08
3.42596e-06
-1.60987e-06
2.84865e-06
-3.24196e-06
2.13416e-06
-4.89204e-06
1.2989e-06
-6.5762e-06
2.49997e-07
-8.57361e-06
-9.73254e-07
-1.24927e-05
-1.43435e-06
-1.9998e-05
-2.23051e-05
7.96047e-07
2.09003e-06
1.93178e-06
6.75545e-06
2.96588e-06
9.49106e-06
3.93283e-06
1.0552e-05
4.80482e-06
1.04501e-05
5.51514e-06
9.52863e-06
6.02384e-06
8.11738e-06
6.3337e-06
6.49882e-06
6.46648e-06
4.85929e-06
6.44178e-06
3.28197e-06
6.25985e-06
1.78836e-06
5.91485e-06
3.61532e-07
5.3802e-06
-1.07522e-06
4.65879e-06
-2.52055e-06
3.74264e-06
-3.9759e-06
2.65969e-06
-5.49326e-06
1.36633e-06
-7.28024e-06
-1.67577e-07
-1.09588e-05
-9.22874e-07
-1.92427e-05
-2.3228e-05
5.69754e-07
1.52028e-06
1.73823e-06
5.58697e-06
3.06532e-06
8.16397e-06
4.40663e-06
9.21065e-06
5.66491e-06
9.19184e-06
6.74124e-06
8.45231e-06
7.56963e-06
7.28898e-06
8.13718e-06
5.93128e-06
8.45687e-06
4.5396e-06
8.54675e-06
3.19208e-06
8.41427e-06
1.92083e-06
8.0578e-06
7.18006e-07
7.43421e-06
-4.51634e-07
6.55977e-06
-1.6461e-06
5.42133e-06
-2.83746e-06
4.05975e-06
-4.13168e-06
2.54233e-06
-5.76282e-06
9.35203e-07
-9.35164e-06
-1.54525e-07
-1.8153e-05
-2.33825e-05
1.47662e-07
1.37261e-06
1.02299e-06
4.71165e-06
2.48752e-06
6.69944e-06
4.19727e-06
7.50091e-06
5.90842e-06
7.48068e-06
7.43385e-06
6.92689e-06
8.67052e-06
6.05231e-06
9.58861e-06
5.01319e-06
1.01834e-05
3.94477e-06
1.04677e-05
2.9078e-06
1.04479e-05
1.94066e-06
1.01303e-05
1.03558e-06
9.47322e-06
2.05467e-07
8.49221e-06
-6.65098e-07
7.18149e-06
-1.52674e-06
5.59098e-06
-2.54116e-06
3.87864e-06
-4.05048e-06
2.22113e-06
-7.69413e-06
6.45595e-07
-1.65775e-05
-2.27369e-05
-5.13972e-07
1.88659e-06
1.94604e-07
4.00307e-06
1.73585e-06
5.15819e-06
3.7839e-06
5.45285e-06
5.92486e-06
5.33972e-06
7.87382e-06
4.97793e-06
9.49407e-06
4.43205e-06
1.07445e-05
3.7628e-06
1.16075e-05
3.08174e-06
1.21005e-05
2.41479e-06
1.22281e-05
1.81305e-06
1.20109e-05
1.25281e-06
1.14701e-05
7.46301e-07
1.05808e-05
2.24117e-07
9.34702e-06
-2.92918e-07
7.83717e-06
-1.03132e-06
6.23701e-06
-2.45031e-06
4.4405e-06
-5.89762e-06
2.04888e-06
-1.41858e-05
-2.0688e-05
-4.17571e-06
6.06229e-06
-3.64002e-06
3.46739e-06
-1.25447e-06
2.77265e-06
1.53087e-06
2.66751e-06
4.25664e-06
2.61395e-06
6.77819e-06
2.45638e-06
8.98369e-06
2.22655e-06
1.08136e-05
1.93285e-06
1.22504e-05
1.64502e-06
1.33211e-05
1.34404e-06
1.40432e-05
1.09094e-06
1.44611e-05
8.34911e-07
1.45637e-05
6.43764e-07
1.43615e-05
4.26251e-07
1.38446e-05
2.23979e-07
1.3028e-05
-2.1466e-07
1.19025e-05
-1.32489e-06
1.01044e-05
-4.09951e-06
5.63462e-06
-9.71603e-06
-1.50534e-05
6.06229e-06
9.52968e-06
1.23023e-05
1.49698e-05
1.75838e-05
2.00402e-05
2.22667e-05
2.41996e-05
2.58446e-05
2.71886e-05
2.82796e-05
2.91145e-05
2.97583e-05
3.01845e-05
3.04085e-05
3.01938e-05
2.88689e-05
2.47694e-05
1.50534e-05
)
;

boundaryField
{
    movingWall
    {
        type            calculated;
        value           uniform 0;
    }
    fixedWalls
    {
        type            calculated;
        value           uniform 0;
    }
    frontAndBack
    {
        type            empty;
        value           nonuniform List<scalar> 0();
    }
}


// ************************************************************************* //
