/*--------------------------------*- C++ -*----------------------------------*\
| =========                 |                                                 |
| \\      /  F ield         | OpenFOAM: The Open Source CFD Toolbox           |
|  \\    /   O peration     | Version:  2212                                  |
|   \\  /    A nd           | Website:  www.openfoam.com                      |
|    \\/     M anipulation  |                                                 |
\*---------------------------------------------------------------------------*/
FoamFile
{
    version     2.0;
    format      ascii;
    arch        "LSB;label=32;scalar=64";
    class       volScalarField;
    location    "4.1";
    object      T;
}
// * * * * * * * * * * * * * * * * * * * * * * * * * * * * * * * * * * * * * //

dimensions      [0 0 0 1 0 0 0];

internalField   nonuniform List<scalar> 
400
(
0.450989
0.469984
0.508008
0.563221
0.62589
0.680823
0.717713
0.73687
0.745589
0.75056
0.754195
0.757033
0.759195
0.760336
0.759706
0.755849
0.746376
0.727732
0.700381
0.677902
0.476139
0.498906
0.544089
0.607496
0.672545
0.718511
0.740386
0.74923
0.754074
0.757559
0.760797
0.764372
0.768355
0.772144
0.774107
0.771472
0.760102
0.7363
0.704504
0.68054
0.515248
0.545103
0.60022
0.665766
0.717277
0.742124
0.749786
0.751882
0.751695
0.751274
0.752476
0.756566
0.763666
0.773308
0.782929
0.788144
0.781436
0.754509
0.712164
0.685255
0.553896
0.591285
0.651789
0.707856
0.738613
0.745587
0.742276
0.734763
0.725566
0.718414
0.715746
0.719823
0.730433
0.747923
0.769691
0.791036
0.802315
0.788687
0.738041
0.699093
0.584778
0.6276
0.687116
0.728016
0.7393
0.731473
0.715818
0.696097
0.677029
0.662832
0.656101
0.659234
0.671945
0.695251
0.72765
0.765778
0.801434
0.818497
0.788944
0.727534
0.607033
0.652181
0.706259
0.731209
0.725888
0.704769
0.67673
0.646379
0.619925
0.600887
0.591465
0.593129
0.60607
0.631292
0.668689
0.716722
0.770382
0.817902
0.832733
0.770855
0.622126
0.666775
0.71336
0.724088
0.705338
0.673032
0.635102
0.597816
0.567452
0.546443
0.536125
0.536814
0.548986
0.573557
0.611496
0.662942
0.725281
0.790629
0.841247
0.830691
0.631775
0.674038
0.713225
0.712812
0.683826
0.642863
0.598125
0.557098
0.52529
0.504067
0.493762
0.493897
0.504762
0.527222
0.562955
0.613945
0.68021
0.755826
0.826028
0.86374
0.637516
0.676399
0.709328
0.701078
0.66491
0.618022
0.56927
0.526614
0.494631
0.473867
0.46385
0.463727
0.473477
0.493636
0.525746
0.572966
0.638969
0.721644
0.804728
0.856498
0.640375
0.675584
0.704077
0.691632
0.651405
0.60099
0.550039
0.506639
0.474682
0.454172
0.444147
0.443696
0.452689
0.471354
0.500485
0.542902
0.604945
0.690699
0.786976
0.852006
0.641074
0.672726
0.698579
0.685048
0.643424
0.591611
0.539986
0.496431
0.464388
0.443657
0.433135
0.432023
0.440233
0.457849
0.484917
0.522982
0.579184
0.663848
0.769598
0.848883
0.640078
0.668464
0.693209
0.681711
0.641744
0.590731
0.539631
0.496138
0.463637
0.442149
0.430717
0.428651
0.435873
0.452416
0.477869
0.512279
0.561933
0.642924
0.756268
0.847374
0.637505
0.663113
0.68782
0.680637
0.64489
0.596706
0.547475
0.504771
0.472111
0.449919
0.437521
0.434314
0.440217
0.455185
0.478644
0.509669
0.552488
0.626976
0.745128
0.847251
0.633234
0.656586
0.681709
0.68074
0.65225
0.609665
0.564241
0.523471
0.491159
0.468338
0.454817
0.450086
0.454136
0.466746
0.487301
0.514377
0.550468
0.617295
0.737962
0.848434
0.627083
0.649205
0.674567
0.679831
0.660046
0.62527
0.585892
0.549109
0.518843
0.496574
0.482577
0.476454
0.47824
0.487609
0.503963
0.526221
0.555686
0.613124
0.733607
0.850824
0.619329
0.640648
0.666037
0.677322
0.667748
0.643397
0.612733
0.582227
0.555772
0.535192
0.521161
0.513595
0.512419
0.517454
0.528311
0.544399
0.567147
0.614065
0.7329
0.854613
0.612148
0.632812
0.656453
0.67042
0.668864
0.655053
0.634793
0.613073
0.593096
0.576616
0.564324
0.556465
0.552869
0.553603
0.558884
0.568504
0.585722
0.624271
0.739247
0.860991
0.606839
0.626278
0.649606
0.664946
0.66957
0.665133
0.655021
0.642308
0.629304
0.617491
0.60763
0.600188
0.595419
0.593374
0.595214
0.600344
0.614745
0.646524
0.752558
0.869195
0.560072
0.62608
0.636829
0.646686
0.650428
0.650687
0.648518
0.645713
0.642615
0.640561
0.639298
0.639546
0.64122
0.644111
0.649838
0.656502
0.672946
0.701273
0.784892
0.88324
0.688729
0.728171
0.750727
0.765853
0.775803
0.783266
0.788711
0.793743
0.797847
0.802312
0.806187
0.810722
0.814715
0.819497
0.823756
0.829293
0.835397
0.847694
0.870401
0.912766
)
;

boundaryField
{
    movingWall
    {
        type            fixedValue;
        value           uniform 1;
    }
    fixedWalls
    {
        type            zeroGradient;
    }
    frontAndBack
    {
        type            empty;
    }
}


// ************************************************************************* //
