/*--------------------------------*- C++ -*----------------------------------*\
| =========                 |                                                 |
| \\      /  F ield         | OpenFOAM: The Open Source CFD Toolbox           |
|  \\    /   O peration     | Version:  2212                                  |
|   \\  /    A nd           | Website:  www.openfoam.com                      |
|    \\/     M anipulation  |                                                 |
\*---------------------------------------------------------------------------*/
FoamFile
{
    version     2.0;
    format      ascii;
    arch        "LSB;label=32;scalar=64";
    class       volScalarField;
    location    "10.8";
    object      p;
}
// * * * * * * * * * * * * * * * * * * * * * * * * * * * * * * * * * * * * * //

dimensions      [0 2 -2 0 0 0 0];

internalField   nonuniform List<scalar> 
400
(
6.04927e-07
-0.000150377
-0.000534456
-0.00107166
-0.00173238
-0.00249385
-0.00318498
-0.00359755
-0.00356532
-0.00293405
-0.0015485
0.000619444
0.00324966
0.00551419
0.0065339
0.00592305
0.00400228
0.00214988
0.0011109
0.00104185
0.000116509
-5.79042e-05
-0.00037685
-0.000764025
-0.00124394
-0.00188807
-0.00270618
-0.0035435
-0.00407999
-0.0039384
-0.0028464
-0.000824822
0.00168944
0.00396102
0.00512485
0.00474328
0.00310321
0.00137497
0.000593374
0.00068444
0.000536627
0.000265159
-7.71328e-05
-0.000559492
-0.0013472
-0.00258058
-0.00421913
-0.0059838
-0.00740258
-0.00794389
-0.00726419
-0.00546199
-0.00289163
-0.000194601
0.00179184
0.00242789
0.00170899
0.000502295
-0.000395909
-0.000392617
0.00115214
0.000741451
0.000192064
-0.000774669
-0.00245105
-0.00493781
-0.00799515
-0.0111205
-0.0137033
-0.0151769
-0.0152068
-0.0138398
-0.0112936
-0.00802903
-0.00475222
-0.00220972
-0.000870384
-0.000706217
-0.00128884
-0.00191816
0.00158352
0.00097392
-2.26967e-05
-0.00192397
-0.00500661
-0.00918006
-0.0139137
-0.0184796
-0.022216
-0.0246526
-0.0255283
-0.0247225
-0.0223631
-0.0187432
-0.0143045
-0.00965561
-0.00559207
-0.0029489
-0.00219327
-0.00401798
0.00129356
0.000445222
-0.00119718
-0.00430427
-0.00900495
-0.0148805
-0.0210726
-0.026715
-0.0311908
-0.0341781
-0.0355448
-0.0351889
-0.0331963
-0.0297181
-0.0248989
-0.0189607
-0.0125051
-0.00694829
-0.00440088
-0.00652417
-4.81154e-05
-0.00114736
-0.00349929
-0.0077967
-0.0139324
-0.0211142
-0.0282358
-0.0344072
-0.039128
-0.0422312
-0.0437189
-0.0436096
-0.0419718
-0.0388779
-0.0343101
-0.0281566
-0.0205386
-0.0127026
-0.00785472
-0.00774794
-0.00245028
-0.00374197
-0.00669841
-0.0119132
-0.0190396
-0.0269815
-0.0345036
-0.0407784
-0.0454499
-0.0484759
-0.0499386
-0.0499299
-0.0485292
-0.0457873
-0.0416614
-0.0359259
-0.0283251
-0.0193707
-0.0118221
-0.00798047
-0.00553742
-0.00691499
-0.0102634
-0.0160217
-0.0236578
-0.031889
-0.0394506
-0.045612
-0.0501363
-0.0530563
-0.0544853
-0.0545254
-0.0532513
-0.0507245
-0.046961
-0.0418111
-0.0348671
-0.0259472
-0.0167088
-0.00999438
-0.0087335
-0.0100856
-0.0135974
-0.0195418
-0.0272859
-0.0354864
-0.0429112
-0.0489087
-0.0533082
-0.056166
-0.0575898
-0.057661
-0.0564427
-0.0540097
-0.0504499
-0.0457594
-0.0396332
-0.0315234
-0.0223208
-0.0143396
-0.0115038
-0.0127576
-0.0162189
-0.0220538
-0.0296065
-0.0375878
-0.0448254
-0.050698
-0.0550412
-0.0578924
-0.0593347
-0.0594262
-0.058217
-0.0557873
-0.0522854
-0.0478511
-0.0424302
-0.0353819
-0.0271974
-0.0191789
-0.013549
-0.0146183
-0.0178555
-0.0233149
-0.0304302
-0.0380618
-0.0451165
-0.0509482
-0.0553273
-0.0582386
-0.0597261
-0.0598285
-0.0585866
-0.0560813
-0.052514
-0.0481368
-0.0432058
-0.0370555
-0.0300313
-0.0224167
-0.014837
-0.0155675
-0.0183514
-0.0232096
-0.0296925
-0.0368778
-0.0437633
-0.0496386
-0.0541531
-0.057199
-0.0587679
-0.058875
-0.0575558
-0.0549141
-0.0511756
-0.0466546
-0.0419644
-0.0362993
-0.0302255
-0.0228954
-0.0154674
-0.0157216
-0.0177768
-0.0217456
-0.0273888
-0.0340305
-0.0407492
-0.046739
-0.0514911
-0.0547663
-0.0564801
-0.0566211
-0.0551996
-0.0523512
-0.0483446
-0.0435806
-0.0387297
-0.0331407
-0.028099
-0.0202788
-0.0155739
-0.0152977
-0.0163375
-0.0190872
-0.0236523
-0.0296331
-0.0361704
-0.0423344
-0.047426
-0.0510376
-0.0529782
-0.0531815
-0.0516891
-0.0485898
-0.0442254
-0.0390528
-0.0337811
-0.0280711
-0.0242311
-0.0143846
-0.0152764
-0.0145497
-0.0142603
-0.0154254
-0.0186842
-0.0238938
-0.0302304
-0.0366135
-0.0421364
-0.0461996
-0.0484876
-0.0488647
-0.0473515
-0.0440195
-0.0392478
-0.0335181
-0.0276408
-0.0216291
-0.0180533
-0.00383277
-0.0146616
-0.0136178
-0.0117065
-0.0110807
-0.0129532
-0.0173797
-0.0235333
-0.0301694
-0.0361921
-0.0408102
-0.0435772
-0.0442602
-0.0428493
-0.0393752
-0.0341844
-0.0276892
-0.020682
-0.0132762
-0.00678594
0.0160528
-0.0145828
-0.0126568
-0.00864815
-0.00623435
-0.00690979
-0.0107454
-0.0168173
-0.0237392
-0.0302977
-0.0355381
-0.0389024
-0.0400338
-0.0388764
-0.0354471
-0.0298952
-0.0222755
-0.0128726
-0.000688458
0.0166946
0.0570636
-0.0117942
-0.0118304
-0.00572587
-0.00177487
-0.00176485
-0.00540451
-0.0115748
-0.0188143
-0.0258748
-0.0316865
-0.0356612
-0.0373608
-0.0366843
-0.0333545
-0.0272237
-0.0175414
-0.0031484
0.0204898
0.0607038
0.129821
-0.0295165
-0.0106294
-0.000608677
0.00308092
0.00244833
-0.00155685
-0.00799915
-0.0155529
-0.0229754
-0.0291729
-0.0335309
-0.0355869
-0.0352002
-0.031955
-0.0252271
-0.0128598
0.0094225
0.0511711
0.122877
0.226076
)
;

boundaryField
{
    movingWall
    {
        type            zeroGradient;
    }
    fixedWalls
    {
        type            zeroGradient;
    }
    frontAndBack
    {
        type            empty;
    }
}


// ************************************************************************* //
