/*--------------------------------*- C++ -*----------------------------------*\
| =========                 |                                                 |
| \\      /  F ield         | OpenFOAM: The Open Source CFD Toolbox           |
|  \\    /   O peration     | Version:  2212                                  |
|   \\  /    A nd           | Website:  www.openfoam.com                      |
|    \\/     M anipulation  |                                                 |
\*---------------------------------------------------------------------------*/
FoamFile
{
    version     2.0;
    format      ascii;
    arch        "LSB;label=32;scalar=64";
    class       volScalarField;
    location    "10.8";
    object      T;
}
// * * * * * * * * * * * * * * * * * * * * * * * * * * * * * * * * * * * * * //

dimensions      [0 0 0 1 0 0 0];

internalField   nonuniform List<scalar> 
400
(
0.909355
0.91144
0.91568
0.921933
0.929177
0.935715
0.940323
0.942936
0.944306
0.945223
0.94605
0.946897
0.947795
0.948712
0.9495
0.949917
0.949565
0.948012
0.945481
0.943406
0.912057
0.914605
0.919707
0.926983
0.934619
0.94017
0.942838
0.943763
0.944097
0.944348
0.944823
0.945701
0.947041
0.948765
0.950515
0.951747
0.95162
0.9495
0.94622
0.943846
0.916274
0.919675
0.925979
0.933543
0.939455
0.941963
0.941963
0.940943
0.939644
0.938659
0.938507
0.93955
0.941801
0.945187
0.949089
0.952591
0.954164
0.952272
0.947577
0.94466
0.9204
0.924677
0.93153
0.937673
0.94036
0.939438
0.936533
0.932811
0.929116
0.926383
0.92532
0.926522
0.929842
0.935354
0.942301
0.949589
0.955185
0.956389
0.951144
0.946598
0.923581
0.928372
0.934726
0.938274
0.937281
0.932771
0.926438
0.919438
0.913031
0.908358
0.906248
0.907395
0.911614
0.919063
0.929075
0.940572
0.951519
0.958739
0.957611
0.950231
0.9257
0.930496
0.93552
0.935973
0.931253
0.923084
0.913178
0.902989
0.894111
0.887742
0.88472
0.885591
0.890343
0.899065
0.911332
0.926238
0.942026
0.955755
0.962487
0.955569
0.92692
0.931261
0.934493
0.931857
0.923708
0.912168
0.899087
0.886309
0.875603
0.868125
0.864564
0.865196
0.87011
0.879345
0.892757
0.9098
0.929073
0.947896
0.961915
0.963211
0.927489
0.931148
0.932594
0.927277
0.916204
0.901798
0.886188
0.871553
0.859711
0.851684
0.847921
0.848458
0.853311
0.862478
0.876016
0.893896
0.91538
0.938075
0.957514
0.967318
0.927614
0.930531
0.930417
0.922983
0.909658
0.893118
0.875748
0.85993
0.847449
0.839172
0.835332
0.835831
0.840575
0.84946
0.86253
0.880128
0.902503
0.928103
0.95185
0.96555
0.927456
0.929747
0.928568
0.919826
0.905057
0.887108
0.868592
0.852017
0.839119
0.830627
0.826639
0.827027
0.831653
0.840305
0.852818
0.869532
0.891558
0.918889
0.946743
0.964221
0.927109
0.928947
0.927176
0.917828
0.902375
0.883785
0.864792
0.847899
0.834753
0.826007
0.821731
0.821841
0.826226
0.834629
0.846657
0.862325
0.88314
0.91091
0.941988
0.963371
0.926625
0.928228
0.926422
0.917331
0.902093
0.883641
0.864748
0.847849
0.834537
0.825479
0.820801
0.820467
0.8244
0.832351
0.843801
0.858357
0.87743
0.90461
0.938187
0.962909
0.925999
0.927551
0.926084
0.917868
0.903592
0.88602
0.867874
0.851467
0.838324
0.829142
0.824114
0.823244
0.826502
0.833661
0.844194
0.857475
0.874434
0.899994
0.935183
0.962859
0.925189
0.926877
0.926122
0.919459
0.907008
0.891155
0.874457
0.859062
0.846424
0.837291
0.831952
0.830412
0.832731
0.838686
0.847818
0.859414
0.874005
0.89731
0.933244
0.963146
0.924119
0.926049
0.925995
0.921017
0.910838
0.897364
0.882858
0.869223
0.857764
0.849199
0.843875
0.841783
0.843026
0.847431
0.854638
0.864158
0.876226
0.896521
0.93223
0.963777
0.922844
0.925094
0.925941
0.922909
0.915488
0.905023
0.893353
0.882067
0.872291
0.864669
0.859546
0.856973
0.856978
0.859519
0.864378
0.871323
0.88066
0.897336
0.932193
0.964771
0.921583
0.923789
0.924895
0.923244
0.918347
0.911067
0.902689
0.894385
0.886977
0.880975
0.8766
0.873979
0.87303
0.873848
0.876421
0.880714
0.887599
0.90111
0.934225
0.966461
0.920691
0.92327
0.925052
0.924555
0.921891
0.917569
0.912339
0.906918
0.901826
0.897455
0.893946
0.891462
0.889988
0.889615
0.890585
0.892796
0.897878
0.908289
0.938041
0.968592
0.908957
0.920838
0.920991
0.920771
0.919359
0.917395
0.915113
0.912976
0.911006
0.909556
0.908497
0.908029
0.90808
0.908612
0.91002
0.911813
0.916393
0.92436
0.946969
0.972245
0.93602
0.943786
0.947967
0.9505
0.951883
0.952768
0.953255
0.953742
0.954094
0.954615
0.955075
0.95575
0.956376
0.957216
0.958022
0.959133
0.96054
0.963495
0.969361
0.979726
)
;

boundaryField
{
    movingWall
    {
        type            fixedValue;
        value           uniform 1;
    }
    fixedWalls
    {
        type            zeroGradient;
    }
    frontAndBack
    {
        type            empty;
    }
}


// ************************************************************************* //
