/*--------------------------------*- C++ -*----------------------------------*\
| =========                 |                                                 |
| \\      /  F ield         | OpenFOAM: The Open Source CFD Toolbox           |
|  \\    /   O peration     | Version:  2212                                  |
|   \\  /    A nd           | Website:  www.openfoam.com                      |
|    \\/     M anipulation  |                                                 |
\*---------------------------------------------------------------------------*/
FoamFile
{
    version     2.0;
    format      ascii;
    arch        "LSB;label=32;scalar=64";
    class       volVectorField;
    location    "10.8";
    object      U;
}
// * * * * * * * * * * * * * * * * * * * * * * * * * * * * * * * * * * * * * //

dimensions      [0 1 -1 0 0 0 0];

internalField   nonuniform List<vector> 
400
(
(0.00168174 -0.00168385 0)
(0.00483864 -0.0018923 0)
(0.00659117 -0.00120075 0)
(0.00567486 -0.000575138 0)
(0.00157225 0.000183977 0)
(-0.00682917 0.00173939 0)
(-0.0206084 0.00478642 0)
(-0.0395417 0.0087362 0)
(-0.0608121 0.0112928 0)
(-0.0791389 0.0105126 0)
(-0.0898141 0.0067745 0)
(-0.0904645 0.00166888 0)
(-0.0802268 -0.00361665 0)
(-0.0599942 -0.00827515 0)
(-0.0335207 -0.0108473 0)
(-0.00529217 -0.00979537 0)
(0.0167245 -0.00477299 0)
(0.0244712 0.00277701 0)
(0.016179 0.00647241 0)
(0.00431657 0.00471722 0)
(0.0017205 -0.00506536 0)
(0.00316272 -0.0040326 0)
(-0.000416988 0.000587707 0)
(-0.0113299 0.00644174 0)
(-0.0314263 0.0140503 0)
(-0.0611508 0.0237745 0)
(-0.0968485 0.0330625 0)
(-0.131462 0.0370936 0)
(-0.158976 0.0335181 0)
(-0.176108 0.0234016 0)
(-0.181455 0.00910915 0)
(-0.175083 -0.00699056 0)
(-0.157564 -0.0231751 0)
(-0.129653 -0.0369152 0)
(-0.0936156 -0.0445667 0)
(-0.0521945 -0.0418395 0)
(-0.0113996 -0.0263344 0)
(0.0168903 -0.00127867 0)
(0.0178726 0.0162244 0)
(0.00554227 0.0148203 0)
(-0.000239563 -0.00578069 0)
(-0.00538116 0.000801531 0)
(-0.0196097 0.0142995 0)
(-0.044505 0.0312369 0)
(-0.0803434 0.0494472 0)
(-0.122209 0.0643229 0)
(-0.162356 0.070549 0)
(-0.195279 0.0660307 0)
(-0.218873 0.0521923 0)
(-0.232541 0.0315343 0)
(-0.236297 0.0064159 0)
(-0.230811 -0.0211148 0)
(-0.216396 -0.0488752 0)
(-0.19255 -0.0732297 0)
(-0.159011 -0.0890295 0)
(-0.115745 -0.089232 0)
(-0.0645642 -0.06703 0)
(-0.013821 -0.0226642 0)
(0.00948174 0.0179194 0)
(0.00415546 0.0235807 0)
(-0.00347203 0.000452973 0)
(-0.0175154 0.0172406 0)
(-0.043518 0.0415023 0)
(-0.0796861 0.0681979 0)
(-0.122966 0.0911653 0)
(-0.165862 0.103854 0)
(-0.201935 0.102908 0)
(-0.22926 0.089675 0)
(-0.2481 0.0673282 0)
(-0.259055 0.0385803 0)
(-0.262963 0.00531663 0)
(-0.26063 -0.0311194 0)
(-0.251996 -0.0684588 0)
(-0.236017 -0.103748 0)
(-0.210703 -0.131496 0)
(-0.173354 -0.142896 0)
(-0.121407 -0.125768 0)
(-0.0568459 -0.0708538 0)
(-0.000986779 0.00356726 0)
(0.0047423 0.0282414 0)
(-0.0066631 0.0147831 0)
(-0.0287316 0.0441129 0)
(-0.0632943 0.0770996 0)
(-0.10447 0.108928 0)
(-0.147293 0.131219 0)
(-0.184596 0.138207 0)
(-0.212937 0.129513 0)
(-0.232722 0.108753 0)
(-0.24524 0.0798015 0)
(-0.252217 0.0454489 0)
(-0.255337 0.00723957 0)
(-0.255518 -0.0340007 0)
(-0.252538 -0.0770883 0)
(-0.245855 -0.120694 0)
(-0.232658 -0.160831 0)
(-0.208333 -0.189042 0)
(-0.166829 -0.18999 0)
(-0.103454 -0.142884 0)
(-0.0221828 -0.0388535 0)
(0.00738221 0.0271023 0)
(-0.0085116 0.0348753 0)
(-0.0351806 0.0766446 0)
(-0.0731 0.114964 0)
(-0.113276 0.147717 0)
(-0.150543 0.166051 0)
(-0.179409 0.165987 0)
(-0.198937 0.149776 0)
(-0.210685 0.122515 0)
(-0.216636 0.0885513 0)
(-0.219268 0.0508729 0)
(-0.220538 0.0109548 0)
(-0.221438 -0.0307608 0)
(-0.22217 -0.0747264 0)
(-0.222842 -0.121299 0)
(-0.221268 -0.169247 0)
(-0.212364 -0.213079 0)
(-0.188042 -0.238607 0)
(-0.139699 -0.218555 0)
(-0.0628536 -0.118948 0)
(0.0058496 0.0142042 0)
(-0.00829398 0.0570103 0)
(-0.0353467 0.110022 0)
(-0.0718466 0.150513 0)
(-0.107092 0.181208 0)
(-0.136731 0.193903 0)
(-0.157141 0.186508 0)
(-0.169054 0.163343 0)
(-0.174594 0.130557 0)
(-0.176169 0.0929088 0)
(-0.17627 0.053413 0)
(-0.176384 0.0133141 0)
(-0.177184 -0.0273139 0)
(-0.179216 -0.0695839 0)
(-0.183023 -0.114738 0)
(-0.187969 -0.163873 0)
(-0.190438 -0.215842 0)
(-0.182548 -0.261693 0)
(-0.154296 -0.275209 0)
(-0.0994122 -0.20593 0)
(-0.00890855 -0.014625 0)
(-0.00613685 0.0776094 0)
(-0.0297982 0.140578 0)
(-0.0614387 0.181254 0)
(-0.0899142 0.208373 0)
(-0.111928 0.214964 0)
(-0.125468 0.200637 0)
(-0.13216 0.171403 0)
(-0.134314 0.134239 0)
(-0.134379 0.0941212 0)
(-0.13428 0.0537545 0)
(-0.134688 0.0138633 0)
(-0.135781 -0.0258927 0)
(-0.138013 -0.0664917 0)
(-0.142075 -0.109112 0)
(-0.148586 -0.155701 0)
(-0.156248 -0.208617 0)
(-0.159102 -0.265941 0)
(-0.146771 -0.308175 0)
(-0.11227 -0.277245 0)
(-0.03097 -0.0753455 0)
(-0.00273092 0.093632 0)
(-0.020424 0.165674 0)
(-0.0451643 0.20565 0)
(-0.0663642 0.228646 0)
(-0.0816365 0.229609 0)
(-0.09013 0.209621 0)
(-0.0937647 0.175868 0)
(-0.094679 0.135829 0)
(-0.0949585 0.0944811 0)
(-0.0957555 0.0540363 0)
(-0.0971062 0.0145942 0)
(-0.0989162 -0.024589 0)
(-0.101352 -0.064243 0)
(-0.104918 -0.105017 0)
(-0.110762 -0.148501 0)
(-0.119622 -0.198621 0)
(-0.128372 -0.259849 0)
(-0.126543 -0.323509 0)
(-0.107494 -0.334812 0)
(-0.0373551 -0.163464 0)
(0.00121932 0.102781 0)
(-0.00894642 0.183519 0)
(-0.0256528 0.223208 0)
(-0.0396553 0.242833 0)
(-0.0491374 0.2396 0)
(-0.0540122 0.215625 0)
(-0.0559836 0.178869 0)
(-0.0566981 0.13717 0)
(-0.0576604 0.0954132 0)
(-0.0594034 0.0552765 0)
(-0.0616969 0.0163107 0)
(-0.0643975 -0.0224954 0)
(-0.0674962 -0.0617476 0)
(-0.0711711 -0.101645 0)
(-0.0763542 -0.142853 0)
(-0.0846153 -0.188997 0)
(-0.0960814 -0.248417 0)
(-0.100663 -0.324378 0)
(-0.0951825 -0.372281 0)
(-0.0309264 -0.24262 0)
(0.00511919 0.103948 0)
(0.00295743 0.193121 0)
(-0.00539179 0.233706 0)
(-0.0125103 0.250868 0)
(-0.0169024 0.244784 0)
(-0.0187903 0.218567 0)
(-0.0194795 0.180504 0)
(-0.0200086 0.138427 0)
(-0.0213074 0.0969686 0)
(-0.0235438 0.0574275 0)
(-0.0264329 0.0190829 0)
(-0.0299165 -0.01917 0)
(-0.0340111 -0.0579858 0)
(-0.0386549 -0.097415 0)
(-0.0443933 -0.137374 0)
(-0.0524529 -0.180246 0)
(-0.065769 -0.235719 0)
(-0.0742266 -0.318157 0)
(-0.0812034 -0.396787 0)
(-0.0229435 -0.307182 0)
(0.00845913 0.0974732 0)
(0.0142231 0.194115 0)
(0.0141061 0.237229 0)
(0.0137116 0.25365 0)
(0.0143345 0.246571 0)
(0.0155317 0.219863 0)
(0.0163914 0.181814 0)
(0.0164452 0.140098 0)
(0.0153075 0.0991565 0)
(0.0130305 0.0602277 0)
(0.00986273 0.0226273 0)
(0.00575433 -0.0147539 0)
(0.000562279 -0.0527003 0)
(-0.00556374 -0.0913079 0)
(-0.013032 -0.130205 0)
(-0.0219792 -0.170387 0)
(-0.0377198 -0.220764 0)
(-0.0487298 -0.304519 0)
(-0.0679047 -0.40853 0)
(-0.0144592 -0.360064 0)
(0.0103311 0.0844925 0)
(0.0234229 0.186519 0)
(0.0310879 0.233352 0)
(0.0370186 0.250195 0)
(0.0426815 0.243356 0)
(0.0476374 0.217571 0)
(0.0510756 0.180808 0)
(0.0527524 0.140401 0)
(0.0526217 0.100637 0)
(0.0508932 0.0628253 0)
(0.0477838 0.0264579 0)
(0.0431757 -0.00952171 0)
(0.0369015 -0.0460045 0)
(0.0290852 -0.0831448 0)
(0.0189287 -0.120575 0)
(0.00760176 -0.158519 0)
(-0.0118142 -0.204477 0)
(-0.0242363 -0.286521 0)
(-0.0558427 -0.411036 0)
(-0.00613712 -0.401911 0)
(0.00987981 0.0672389 0)
(0.0290352 0.170707 0)
(0.0443637 0.22226 0)
(0.0569086 0.241359 0)
(0.0682047 0.236433 0)
(0.0778942 0.213071 0)
(0.0851179 0.178778 0)
(0.0895749 0.140435 0)
(0.0913417 0.102273 0)
(0.090718 0.0658333 0)
(0.0880334 0.0309804 0)
(0.0829841 -0.00330301 0)
(0.0754687 -0.0375505 0)
(0.0657751 -0.0723369 0)
(0.0525209 -0.107466 0)
(0.037585 -0.142818 0)
(0.01314 -0.184304 0)
(8.63856e-05 -0.263281 0)
(-0.0447945 -0.406735 0)
(0.00276658 -0.436286 0)
(0.00693105 0.0493982 0)
(0.0293704 0.148981 0)
(0.0511232 0.203667 0)
(0.0700057 0.22459 0)
(0.0874856 0.221734 0)
(0.103184 0.201576 0)
(0.115858 0.17098 0)
(0.124826 0.136088 0)
(0.130001 0.100888 0)
(0.131624 0.0670562 0)
(0.129961 0.0348444 0)
(0.125037 0.00342814 0)
(0.116405 -0.0274728 0)
(0.10467 -0.058716 0)
(0.087573 -0.0903434 0)
(0.0683791 -0.122965 0)
(0.0383097 -0.160885 0)
(0.0238679 -0.23718 0)
(-0.0344358 -0.39898 0)
(0.0134765 -0.464442 0)
(0.00238756 0.0346258 0)
(0.0236459 0.123908 0)
(0.0509689 0.179969 0)
(0.0767066 0.202972 0)
(0.101377 0.202663 0)
(0.124266 0.186262 0)
(0.143725 0.160205 0)
(0.158538 0.129772 0)
(0.168287 0.0985765 0)
(0.17318 0.0683072 0)
(0.173157 0.0395615 0)
(0.168929 0.0119336 0)
(0.159091 -0.0149181 0)
(0.145355 -0.0417273 0)
(0.124047 -0.0687736 0)
(0.100501 -0.0975781 0)
(0.0646391 -0.132734 0)
(0.0470158 -0.207474 0)
(-0.0226998 -0.387094 0)
(0.0285351 -0.485565 0)
(-0.00342641 0.0286114 0)
(0.0100753 0.101504 0)
(0.0371206 0.148709 0)
(0.0689921 0.16948 0)
(0.101893 0.170703 0)
(0.133619 0.158412 0)
(0.161624 0.137976 0)
(0.184175 0.11357 0)
(0.200228 0.0882799 0)
(0.210156 0.0636349 0)
(0.213083 0.0403804 0)
(0.21083 0.0183993 0)
(0.200563 -0.0026833 0)
(0.185928 -0.0233237 0)
(0.161108 -0.0439927 0)
(0.134483 -0.0677563 0)
(0.0929436 -0.101708 0)
(0.0698839 -0.180025 0)
(-0.00436328 -0.370058 0)
(0.0521634 -0.491644 0)
(-0.0140131 0.0185153 0)
(-0.00751618 0.0881756 0)
(0.0192239 0.124199 0)
(0.0564636 0.137329 0)
(0.0976248 0.136923 0)
(0.138015 0.127741 0)
(0.174275 0.113084 0)
(0.204127 0.0953035 0)
(0.226027 0.0768286 0)
(0.241125 0.0586771 0)
(0.247161 0.0418016 0)
(0.248078 0.0261047 0)
(0.238737 0.0117382 0)
(0.226917 -0.00205514 0)
(0.201912 -0.0160972 0)
(0.177921 -0.0350342 0)
(0.133567 -0.0678125 0)
(0.107846 -0.146007 0)
(0.0374752 -0.32612 0)
(0.0923687 -0.455871 0)
(-0.10602 0.0824166 0)
(-0.0777608 0.0689897 0)
(-0.0485677 0.0733713 0)
(0.00378422 0.077893 0)
(0.0573043 0.0782281 0)
(0.110042 0.0739644 0)
(0.157216 0.066629 0)
(0.199583 0.0572236 0)
(0.231698 0.0475465 0)
(0.259854 0.0378887 0)
(0.275582 0.02922 0)
(0.290738 0.0212324 0)
(0.291089 0.0144736 0)
(0.295197 0.00808938 0)
(0.27889 0.00112047 0)
(0.271671 -0.010017 0)
(0.232355 -0.0355714 0)
(0.218146 -0.0954205 0)
(0.150209 -0.229723 0)
(0.170672 -0.341455 0)
(0.129969 0.103744 0)
(0.158319 0.075227 0)
(0.212163 0.0532267 0)
(0.270671 0.041622 0)
(0.323248 0.0359126 0)
(0.375692 0.0319485 0)
(0.42029 0.0289165 0)
(0.465611 0.025581 0)
(0.498709 0.0229029 0)
(0.53396 0.0197104 0)
(0.5534 0.0175474 0)
(0.57921 0.0146094 0)
(0.585347 0.0131643 0)
(0.603685 0.0103453 0)
(0.595103 0.00938282 0)
(0.603602 0.00499918 0)
(0.567792 8.87317e-05 0)
(0.547612 -0.0183162 0)
(0.435689 -0.0504144 0)
(0.336753 -0.101386 0)
)
;

boundaryField
{
    movingWall
    {
        type            fixedValue;
        value           uniform (1 0 0);
    }
    fixedWalls
    {
        type            noSlip;
    }
    frontAndBack
    {
        type            empty;
    }
}


// ************************************************************************* //
