/*--------------------------------*- C++ -*----------------------------------*\
| =========                 |                                                 |
| \\      /  F ield         | OpenFOAM: The Open Source CFD Toolbox           |
|  \\    /   O peration     | Version:  2212                                  |
|   \\  /    A nd           | Website:  www.openfoam.com                      |
|    \\/     M anipulation  |                                                 |
\*---------------------------------------------------------------------------*/
FoamFile
{
    version     2.0;
    format      ascii;
    arch        "LSB;label=32;scalar=64";
    class       volScalarField;
    location    "4.2";
    object      T;
}
// * * * * * * * * * * * * * * * * * * * * * * * * * * * * * * * * * * * * * //

dimensions      [0 0 0 1 0 0 0];

internalField   nonuniform List<scalar> 
400
(
0.468532
0.486872
0.523604
0.576974
0.637576
0.690715
0.726419
0.744946
0.753297
0.757969
0.761387
0.764101
0.766225
0.767432
0.766989
0.763487
0.754612
0.736936
0.710897
0.689473
0.492896
0.514866
0.558501
0.619794
0.682707
0.727148
0.748191
0.756496
0.760872
0.763983
0.766953
0.77036
0.774279
0.778132
0.780325
0.778166
0.767624
0.745104
0.714839
0.691999
0.530754
0.559556
0.612782
0.67613
0.725863
0.74964
0.756592
0.758069
0.757394
0.756623
0.757587
0.761532
0.768565
0.77823
0.788008
0.793633
0.787795
0.762459
0.72216
0.696511
0.568125
0.604197
0.662604
0.71668
0.746087
0.752214
0.748226
0.7402
0.730685
0.723335
0.720551
0.72455
0.735092
0.752509
0.774214
0.795606
0.807304
0.794961
0.746875
0.709732
0.59795
0.639254
0.696622
0.735824
0.746069
0.737541
0.721368
0.701364
0.682161
0.667895
0.661138
0.664259
0.676949
0.700177
0.732399
0.770253
0.805692
0.823085
0.795458
0.736892
0.619417
0.66293
0.714908
0.738434
0.7323
0.710635
0.682272
0.651794
0.625257
0.606157
0.596709
0.598399
0.611405
0.636669
0.673994
0.721748
0.774903
0.821909
0.837099
0.778248
0.63395
0.676929
0.721512
0.731041
0.711653
0.678945
0.640822
0.603434
0.572926
0.55177
0.541364
0.542076
0.554376
0.579111
0.617142
0.668479
0.730401
0.795004
0.844886
0.83537
0.643224
0.68385
0.721153
0.719716
0.690227
0.648974
0.604107
0.562945
0.530906
0.509449
0.499004
0.499164
0.510206
0.532913
0.568842
0.619845
0.685815
0.760741
0.829906
0.866829
0.648726
0.686057
0.717222
0.708076
0.671515
0.62443
0.575591
0.532774
0.500507
0.479459
0.469276
0.469184
0.47914
0.499586
0.531943
0.579241
0.645022
0.727043
0.809063
0.85982
0.651452
0.685232
0.712082
0.698834
0.658303
0.607774
0.556788
0.513248
0.481014
0.460218
0.45003
0.449615
0.458817
0.477762
0.507116
0.549593
0.611432
0.69654
0.79161
0.855471
0.652098
0.682463
0.706787
0.692512
0.65066
0.598823
0.547242
0.503624
0.471374
0.450409
0.439749
0.438672
0.447069
0.464925
0.492151
0.530194
0.586135
0.670147
0.774594
0.852447
0.651106
0.678364
0.701699
0.689493
0.649353
0.598396
0.547436
0.503999
0.471417
0.449789
0.438265
0.436226
0.443585
0.460292
0.485809
0.520081
0.569363
0.649637
0.761542
0.851011
0.648581
0.673215
0.696625
0.688745
0.652858
0.604801
0.555806
0.513293
0.480705
0.458501
0.446079
0.442895
0.448876
0.463913
0.487326
0.518092
0.560419
0.634121
0.750689
0.850925
0.644395
0.666926
0.690877
0.689209
0.660569
0.618141
0.573019
0.532552
0.500458
0.47776
0.464303
0.459607
0.463682
0.476266
0.496665
0.523375
0.558859
0.62482
0.743751
0.852125
0.638387
0.659771
0.684074
0.688638
0.668673
0.634052
0.594999
0.558583
0.528633
0.506593
0.492742
0.486684
0.488466
0.497741
0.513857
0.535678
0.564464
0.620997
0.7396
0.854499
0.630874
0.651478
0.675916
0.686499
0.676674
0.652411
0.622029
0.59188
0.565771
0.545471
0.531636
0.524168
0.52299
0.527906
0.538495
0.554131
0.57619
0.622215
0.739032
0.858247
0.62395
0.643837
0.666605
0.67992
0.678077
0.664274
0.644206
0.622763
0.603074
0.586845
0.574738
0.566982
0.56339
0.564022
0.56906
0.57828
0.594861
0.632567
0.745399
0.86452
0.618863
0.637582
0.660044
0.674749
0.679032
0.674494
0.664441
0.651878
0.639054
0.627413
0.617686
0.61032
0.605551
0.603424
0.60506
0.609872
0.623719
0.6547
0.758555
0.872571
0.573215
0.6371
0.647408
0.656854
0.660362
0.660486
0.658252
0.655405
0.652281
0.650179
0.648853
0.648996
0.65053
0.65324
0.658715
0.665086
0.68102
0.708578
0.790309
0.886322
0.698068
0.736293
0.758134
0.772761
0.782364
0.789554
0.794789
0.799625
0.803566
0.80786
0.811587
0.815955
0.819804
0.824415
0.828527
0.833874
0.839792
0.851736
0.873889
0.915156
)
;

boundaryField
{
    movingWall
    {
        type            fixedValue;
        value           uniform 1;
    }
    fixedWalls
    {
        type            zeroGradient;
    }
    frontAndBack
    {
        type            empty;
    }
}


// ************************************************************************* //
