/*--------------------------------*- C++ -*----------------------------------*\
| =========                 |                                                 |
| \\      /  F ield         | OpenFOAM: The Open Source CFD Toolbox           |
|  \\    /   O peration     | Version:  2212                                  |
|   \\  /    A nd           | Website:  www.openfoam.com                      |
|    \\/     M anipulation  |                                                 |
\*---------------------------------------------------------------------------*/
FoamFile
{
    version     2.0;
    format      ascii;
    arch        "LSB;label=32;scalar=64";
    class       surfaceScalarField;
    location    "8.2";
    object      phi;
}
// * * * * * * * * * * * * * * * * * * * * * * * * * * * * * * * * * * * * * //

dimensions      [0 3 -1 0 0 0 0];

oriented        oriented;

internalField   nonuniform List<scalar> 
760
(
1.56069e-07
-1.56067e-07
2.93563e-07
-1.37493e-07
3.09902e-07
-1.63401e-08
1.83591e-07
1.26311e-07
-1.20375e-07
3.03966e-07
-6.65934e-07
5.45558e-07
-1.48517e-06
8.19234e-07
-2.49063e-06
1.00546e-06
-3.48002e-06
9.89388e-07
-4.21999e-06
7.39969e-07
-4.54366e-06
3.23672e-07
-4.35346e-06
-1.90194e-07
-3.59375e-06
-7.59716e-07
-2.37916e-06
-1.21459e-06
-9.40339e-07
-1.43882e-06
3.47363e-07
-1.2877e-06
1.08962e-06
-7.42256e-07
1.0329e-06
5.67144e-08
4.60937e-07
5.71967e-07
4.60937e-07
1.24993e-07
-2.81059e-07
7.44986e-08
-8.70006e-08
-2.9713e-07
3.5529e-07
-1.07894e-06
9.08118e-07
-2.31581e-06
1.54084e-06
-3.92707e-06
2.15682e-06
-5.66177e-06
2.55393e-06
-7.20634e-06
2.55004e-06
-8.33618e-06
2.11922e-06
-8.94153e-06
1.34532e-06
-8.97553e-06
3.57671e-07
-8.41566e-06
-7.5006e-07
-7.29328e-06
-1.8821e-06
-5.6419e-06
-2.86597e-06
-3.60589e-06
-3.47483e-06
-1.49045e-06
-3.40314e-06
1.78435e-07
-2.41114e-06
8.58777e-07
-6.23628e-07
5.25629e-07
9.05114e-07
9.86565e-07
-1.27649e-07
-1.53412e-07
-6.33978e-07
4.1933e-07
-1.62489e-06
1.3462e-06
-3.14125e-06
2.42448e-06
-5.05705e-06
3.45664e-06
-7.07264e-06
4.17241e-06
-8.87252e-06
4.3538e-06
-1.02766e-05
3.95414e-06
-1.12333e-05
3.0759e-06
-1.17348e-05
1.84684e-06
-1.17289e-05
3.51779e-07
-1.12701e-05
-1.20887e-06
-1.03376e-05
-2.81463e-06
-8.87717e-06
-4.32639e-06
-6.86916e-06
-5.48284e-06
-4.40306e-06
-5.86925e-06
-1.87877e-06
-4.93542e-06
-8.65097e-08
-2.41589e-06
2.94649e-07
5.23956e-07
1.28121e-06
-5.00513e-07
3.47103e-07
-1.5599e-06
1.47871e-06
-3.11922e-06
2.90553e-06
-5.08086e-06
4.38611e-06
-7.18446e-06
5.56024e-06
-9.1222e-06
6.11015e-06
-1.06918e-05
5.92345e-06
-1.18509e-05
5.11319e-06
-1.26274e-05
3.85241e-06
-1.3056e-05
2.27543e-06
-1.31211e-05
4.16868e-07
-1.28817e-05
-1.44829e-06
-1.2299e-05
-3.39729e-06
-1.12713e-05
-5.35408e-06
-9.66789e-06
-7.08627e-06
-7.36406e-06
-8.17307e-06
-4.3985e-06
-7.90099e-06
-1.37807e-06
-5.43632e-06
1.2069e-07
-9.748e-07
1.4019e-06
-8.61862e-07
1.20896e-06
-2.36146e-06
2.97831e-06
-4.2323e-06
4.77637e-06
-6.27938e-06
6.43319e-06
-8.22152e-06
7.50238e-06
-9.83603e-06
7.72466e-06
-1.10462e-05
7.13366e-06
-1.18787e-05
5.94564e-06
-1.23952e-05
4.36889e-06
-1.26683e-05
2.54857e-06
-1.27889e-05
5.37449e-07
-1.27433e-05
-1.49384e-06
-1.25228e-05
-3.61779e-06
-1.20485e-05
-5.82844e-06
-1.1134e-05
-8.00072e-06
-9.49156e-06
-9.81554e-06
-6.82163e-06
-1.05709e-05
-3.22279e-06
-9.03517e-06
-2.61205e-07
-3.93638e-06
1.1407e-06
-1.08695e-06
2.29591e-06
-2.78426e-06
4.67562e-06
-4.67779e-06
6.66991e-06
-6.5356e-06
8.29099e-06
-8.13335e-06
9.10014e-06
-9.34004e-06
8.93136e-06
-1.01517e-05
7.94528e-06
-1.06333e-05
6.42731e-06
-1.08753e-05
4.61081e-06
-1.09771e-05
2.65043e-06
-1.10603e-05
6.20613e-07
-1.11109e-05
-1.44321e-06
-1.11452e-05
-3.58347e-06
-1.11343e-05
-5.83934e-06
-1.09249e-05
-8.21016e-06
-1.019e-05
-1.05505e-05
-8.43518e-06
-1.23257e-05
-5.24452e-06
-1.22258e-05
-1.1586e-06
-8.0223e-06
-1.78988e-08
-1.11102e-06
3.40693e-06
-2.75888e-06
6.32348e-06
-4.45661e-06
8.36764e-06
-5.99241e-06
9.8268e-06
-7.2062e-06
1.03139e-05
-8.03565e-06
9.76081e-06
-8.51852e-06
8.42815e-06
-8.74179e-06
6.65057e-06
-8.80892e-06
4.67794e-06
-8.81666e-06
2.65817e-06
-8.84714e-06
6.51094e-07
-8.91856e-06
-1.37179e-06
-9.05087e-06
-3.45116e-06
-9.25571e-06
-5.63449e-06
-9.47705e-06
-7.98882e-06
-9.48406e-06
-1.05435e-05
-8.75803e-06
-1.30517e-05
-6.54053e-06
-1.44433e-05
-2.42468e-06
-1.21381e-05
-2.44258e-06
-9.36404e-07
4.34333e-06
-2.3485e-06
7.73557e-06
-3.73621e-06
9.75535e-06
-4.91603e-06
1.10066e-05
-5.78703e-06
1.11849e-05
-6.33239e-06
1.03062e-05
-6.60931e-06
8.70507e-06
-6.70876e-06
6.75003e-06
-6.72663e-06
4.69581e-06
-6.73563e-06
2.66717e-06
-6.77115e-06
6.86617e-07
-6.85e-06
-1.29294e-06
-6.9931e-06
-3.30806e-06
-7.23109e-06
-5.3965e-06
-7.58154e-06
-7.63838e-06
-7.95436e-06
-1.01707e-05
-7.94045e-06
-1.30656e-05
-6.72185e-06
-1.56619e-05
-3.58938e-06
-1.52706e-05
-6.03196e-06
-6.25879e-07
4.96921e-06
-1.68934e-06
8.79903e-06
-2.72338e-06
1.07894e-05
-3.56339e-06
1.18466e-05
-4.15386e-06
1.17754e-05
-4.50497e-06
1.06573e-05
-4.67563e-06
8.87573e-06
-4.74418e-06
6.81858e-06
-4.78275e-06
4.73438e-06
-4.83457e-06
2.719e-06
-4.9095e-06
7.61541e-07
-5.0137e-06
-1.18874e-06
-5.15695e-06
-3.16482e-06
-5.36776e-06
-5.18568e-06
-5.70132e-06
-7.30482e-06
-6.17174e-06
-9.70023e-06
-6.56221e-06
-1.26752e-05
-6.13234e-06
-1.60918e-05
-3.92669e-06
-1.74763e-05
-9.95865e-06
-2.3317e-07
5.20238e-06
-8.94763e-07
9.46062e-06
-1.56717e-06
1.14618e-05
-2.09758e-06
1.2377e-05
-2.45832e-06
1.21361e-05
-2.67369e-06
1.08727e-05
-2.79189e-06
8.99393e-06
-2.86613e-06
6.89282e-06
-2.94087e-06
4.80912e-06
-3.03796e-06
2.81609e-06
-3.1601e-06
8.83676e-07
-3.30677e-06
-1.04206e-06
-3.47802e-06
-2.99357e-06
-3.68591e-06
-4.97779e-06
-3.9808e-06
-7.00993e-06
-4.44512e-06
-9.23591e-06
-5.02745e-06
-1.20928e-05
-5.12697e-06
-1.59923e-05
-3.5605e-06
-1.90427e-05
-1.35191e-05
1.63758e-07
5.03863e-06
-7.0385e-08
9.69477e-06
-4.03779e-07
1.17952e-05
-6.55237e-07
1.26285e-05
-8.10688e-07
1.22916e-05
-9.01267e-07
1.09632e-05
-9.66338e-07
9.059e-06
-1.03776e-06
6.96424e-06
-1.13206e-06
4.90343e-06
-1.25702e-06
2.94105e-06
-1.4152e-06
1.04186e-06
-1.60873e-06
-8.4853e-07
-1.83604e-06
-2.76626e-06
-2.09477e-06
-4.71907e-06
-2.41211e-06
-6.69259e-06
-2.87949e-06
-8.76853e-06
-3.5624e-06
-1.14099e-05
-4.02696e-06
-1.55277e-05
-3.02675e-06
-2.00429e-05
-1.65459e-05
5.02374e-07
4.53625e-06
7.00591e-07
9.49655e-06
7.43985e-07
1.17518e-05
7.79737e-07
1.25927e-05
8.24708e-07
1.22466e-05
8.53588e-07
1.09343e-05
8.46736e-07
9.06585e-06
7.95962e-07
7.01501e-06
7.02083e-07
4.99731e-06
5.668e-07
3.07633e-06
3.84892e-07
1.22376e-06
1.50169e-07
-6.13807e-07
-1.38921e-07
-2.47717e-06
-4.8902e-07
-4.36897e-06
-9.03689e-07
-6.27792e-06
-1.42635e-06
-8.24586e-06
-2.2045e-06
-1.06318e-05
-2.95405e-06
-1.47782e-05
-2.46099e-06
-2.0536e-05
-1.90069e-05
7.59578e-07
3.77667e-06
1.35925e-06
8.89688e-06
1.75365e-06
1.13574e-05
2.08463e-06
1.22617e-05
2.35911e-06
1.19721e-05
2.54694e-06
1.07465e-05
2.64005e-06
8.97274e-06
2.64914e-06
7.00593e-06
2.58817e-06
5.05827e-06
2.46352e-06
3.20098e-06
2.26754e-06
1.41974e-06
1.98615e-06
-3.32413e-07
1.62e-06
-2.11102e-06
1.1642e-06
-3.91317e-06
6.14506e-07
-5.72823e-06
-8.0209e-08
-7.55115e-06
-9.53963e-07
-9.75803e-06
-1.9171e-06
-1.3815e-05
-1.92427e-06
-2.05288e-05
-2.09311e-05
8.75275e-07
2.9014e-06
1.81854e-06
7.95362e-06
2.56344e-06
1.06125e-05
3.20737e-06
1.16178e-05
3.75781e-06
1.14217e-05
4.17157e-06
1.03328e-05
4.43283e-06
8.71149e-06
4.55553e-06
6.88322e-06
4.5625e-06
5.05131e-06
4.46871e-06
3.29477e-06
4.27196e-06
1.61649e-06
3.93961e-06
-6.20194e-11
3.49242e-06
-1.66383e-06
2.90478e-06
-3.32552e-06
2.17795e-06
-5.0014e-06
1.33107e-06
-6.70427e-06
2.73802e-07
-8.70076e-06
-9.53579e-07
-1.25877e-05
-1.42509e-06
-2.00573e-05
-2.23562e-05
8.11156e-07
2.09025e-06
1.96443e-06
6.80034e-06
3.01183e-06
9.56511e-06
3.98966e-06
1.064e-05
4.87102e-06
1.05403e-05
5.5899e-06
9.61388e-06
6.10721e-06
8.19418e-06
6.42587e-06
6.56456e-06
6.56663e-06
4.91056e-06
6.5473e-06
3.31411e-06
6.36602e-06
1.79777e-06
6.02011e-06
3.45845e-07
5.4765e-06
-1.12022e-06
4.74271e-06
-2.59173e-06
3.8109e-06
-4.06959e-06
2.71013e-06
-5.6035e-06
1.40096e-06
-7.39159e-06
-1.49311e-07
-1.10374e-05
-9.09324e-07
-1.92973e-05
-2.32656e-05
5.81244e-07
1.509e-06
1.76969e-06
5.61189e-06
3.11453e-06
8.22027e-06
4.4719e-06
9.28261e-06
5.74433e-06
9.26791e-06
6.8332e-06
8.52501e-06
7.6731e-06
7.35428e-06
8.25132e-06
5.98633e-06
8.58013e-06
4.58175e-06
8.67613e-06
3.21812e-06
8.54592e-06
1.92798e-06
8.18661e-06
7.05152e-07
7.55408e-06
-4.87691e-07
6.66576e-06
-1.70342e-06
5.50905e-06
-2.91288e-06
4.12499e-06
-4.21943e-06
2.58753e-06
-5.85414e-06
9.68382e-07
-9.41823e-06
-1.39239e-07
-1.81897e-05
-2.34048e-05
1.54214e-07
1.35479e-06
1.04823e-06
4.71788e-06
2.53269e-06
6.73582e-06
4.2624e-06
7.5529e-06
5.99203e-06
7.53829e-06
7.5338e-06
6.98323e-06
8.78502e-06
6.10306e-06
9.71587e-06
5.05548e-06
1.03214e-05
3.97626e-06
1.06128e-05
2.92666e-06
1.05961e-05
1.94466e-06
1.02768e-05
1.02446e-06
9.60859e-06
1.80549e-07
8.61394e-06
-7.08766e-07
7.28268e-06
-1.58162e-06
5.667e-06
-2.60376e-06
3.92808e-06
-4.11522e-06
2.25011e-06
-7.74026e-06
6.56704e-07
-1.65963e-05
-2.27481e-05
-5.19054e-07
1.87384e-06
2.0358e-07
3.99524e-06
1.76735e-06
5.17205e-06
3.84047e-06
5.47978e-06
6.00574e-06
5.37302e-06
7.97614e-06
5.01283e-06
9.61507e-06
4.46413e-06
1.08809e-05
3.78964e-06
1.17561e-05
3.10105e-06
1.22568e-05
2.42599e-06
1.23863e-05
1.8151e-06
1.21645e-05
1.24629e-06
1.16155e-05
7.29567e-07
1.07096e-05
1.97133e-07
9.45156e-06
-3.23584e-07
7.91509e-06
-1.06729e-06
6.28609e-06
-2.48621e-06
4.46631e-06
-5.92049e-06
2.05955e-06
-1.41895e-05
-2.06885e-05
-4.18146e-06
6.0553e-06
-3.64406e-06
3.45784e-06
-1.24395e-06
2.77194e-06
1.56215e-06
2.67368e-06
4.31032e-06
2.62485e-06
6.85351e-06
2.46963e-06
9.07805e-06
2.2396e-06
1.09234e-05
1.94425e-06
1.23711e-05
1.65339e-06
1.34479e-05
1.34915e-06
1.4171e-05
1.09206e-06
1.4585e-05
8.32298e-07
1.46775e-05
6.37031e-07
1.44575e-05
4.17086e-07
1.39211e-05
2.12882e-07
1.3084e-05
-2.30176e-07
1.19341e-05
-1.33637e-06
1.01165e-05
-4.10286e-06
5.63951e-06
-9.71255e-06
-1.5049e-05
6.0553e-06
9.51314e-06
1.22851e-05
1.49588e-05
1.75836e-05
2.00532e-05
2.22928e-05
2.42371e-05
2.58905e-05
2.72396e-05
2.83317e-05
2.9164e-05
2.9801e-05
3.02181e-05
3.0431e-05
3.02008e-05
2.88644e-05
2.47616e-05
1.5049e-05
)
;

boundaryField
{
    movingWall
    {
        type            calculated;
        value           uniform 0;
    }
    fixedWalls
    {
        type            calculated;
        value           uniform 0;
    }
    frontAndBack
    {
        type            empty;
        value           nonuniform List<scalar> 0();
    }
}


// ************************************************************************* //
