/*--------------------------------*- C++ -*----------------------------------*\
| =========                 |                                                 |
| \\      /  F ield         | OpenFOAM: The Open Source CFD Toolbox           |
|  \\    /   O peration     | Version:  2212                                  |
|   \\  /    A nd           | Website:  www.openfoam.com                      |
|    \\/     M anipulation  |                                                 |
\*---------------------------------------------------------------------------*/
FoamFile
{
    version     2.0;
    format      ascii;
    arch        "LSB;label=32;scalar=64";
    class       volVectorField;
    location    "8.2";
    object      U;
}
// * * * * * * * * * * * * * * * * * * * * * * * * * * * * * * * * * * * * * //

dimensions      [0 1 -1 0 0 0 0];

internalField   nonuniform List<vector> 
400
(
(0.00168166 -0.00168322 0)
(0.00483791 -0.00189176 0)
(0.00658956 -0.00120047 0)
(0.00567294 -0.000574959 0)
(0.00157047 0.000184129 0)
(-0.00683013 0.00173937 0)
(-0.0206076 0.00478581 0)
(-0.0395383 0.00873485 0)
(-0.0608062 0.0112913 0)
(-0.0791316 0.0105118 0)
(-0.0898073 0.0067746 0)
(-0.0904596 0.0016697 0)
(-0.0802251 -0.00361531 0)
(-0.059996 -0.00827368 0)
(-0.0335257 -0.0108461 0)
(-0.00529918 -0.0097949 0)
(0.0167172 -0.00477398 0)
(0.0244658 0.00277568 0)
(0.0161767 0.0064712 0)
(0.00431622 0.00471663 0)
(0.00171993 -0.00506348 0)
(0.00316101 -0.00403082 0)
(-0.00041938 0.000588511 0)
(-0.0113316 0.0064416 0)
(-0.0314258 0.014049 0)
(-0.0611462 0.0237714 0)
(-0.0968391 0.0330578 0)
(-0.131449 0.0370889 0)
(-0.158961 0.0335149 0)
(-0.176092 0.0234007 0)
(-0.18144 0.00911055 0)
(-0.175071 -0.00698727 0)
(-0.157555 -0.0231704 0)
(-0.129648 -0.0369101 0)
(-0.0936145 -0.0445625 0)
(-0.0521973 -0.0418373 0)
(-0.0114047 -0.0263354 0)
(0.0168846 -0.00128222 0)
(0.0178695 0.0162208 0)
(0.00554176 0.0148183 0)
(-0.000240206 -0.00577772 0)
(-0.00538239 0.000804158 0)
(-0.0196102 0.0142996 0)
(-0.0445027 0.0312338 0)
(-0.0803361 0.0494409 0)
(-0.122195 0.0643142 0)
(-0.162337 0.0705399 0)
(-0.195257 0.0660233 0)
(-0.218848 0.0521879 0)
(-0.232516 0.0315334 0)
(-0.236272 0.00641881 0)
(-0.230788 -0.0211085 0)
(-0.216376 -0.0488664 0)
(-0.192533 -0.0732199 0)
(-0.158999 -0.0890207 0)
(-0.115738 -0.0892262 0)
(-0.0645627 -0.0670292 0)
(-0.013824 -0.0226691 0)
(0.00947968 0.0179135 0)
(0.00415539 0.0235774 0)
(-0.00347204 0.0004564 0)
(-0.0175145 0.0172423 0)
(-0.0435144 0.041499 0)
(-0.0796774 0.0681895 0)
(-0.12295 0.091153 0)
(-0.16584 0.10384 0)
(-0.201908 0.102895 0)
(-0.229229 0.0896651 0)
(-0.248067 0.0673223 0)
(-0.259021 0.0385792 0)
(-0.262929 0.00532074 0)
(-0.260597 -0.0311102 0)
(-0.251966 -0.0684457 0)
(-0.23599 -0.103733 0)
(-0.210681 -0.131481 0)
(-0.173338 -0.142884 0)
(-0.121397 -0.125762 0)
(-0.0568437 -0.0708554 0)
(-0.000988535 0.00356056 0)
(0.00474224 0.0282372 0)
(-0.00666239 0.0147853 0)
(-0.0287282 0.0441112 0)
(-0.0632861 0.0770911 0)
(-0.104455 0.108914 0)
(-0.147271 0.131201 0)
(-0.184568 0.138188 0)
(-0.212904 0.129496 0)
(-0.232686 0.10874 0)
(-0.245201 0.0797933 0)
(-0.252176 0.0454468 0)
(-0.255295 0.00724413 0)
(-0.255478 -0.0339895 0)
(-0.2525 -0.0770716 0)
(-0.245821 -0.120674 0)
(-0.232629 -0.16081 0)
(-0.20831 -0.189022 0)
(-0.166812 -0.189975 0)
(-0.103445 -0.142878 0)
(-0.0221831 -0.0388581 0)
(0.00738104 0.0270972 0)
(-0.0085102 0.0348744 0)
(-0.035175 0.076638 0)
(-0.0730883 0.114949 0)
(-0.113257 0.147696 0)
(-0.150518 0.166027 0)
(-0.179379 0.165964 0)
(-0.198902 0.149755 0)
(-0.210646 0.122498 0)
(-0.216593 0.08854 0)
(-0.219222 0.0508688 0)
(-0.22049 0.010959 0)
(-0.221392 -0.0307483 0)
(-0.222126 -0.0747067 0)
(-0.222803 -0.121275 0)
(-0.221235 -0.16922 0)
(-0.212336 -0.213054 0)
(-0.188021 -0.238585 0)
(-0.139684 -0.21854 0)
(-0.0628472 -0.118943 0)
(0.00584746 0.0142003 0)
(-0.00829221 0.0570052 0)
(-0.0353398 0.110009 0)
(-0.0718332 0.150492 0)
(-0.107072 0.181181 0)
(-0.136706 0.193875 0)
(-0.15711 0.18648 0)
(-0.169019 0.163317 0)
(-0.174554 0.130535 0)
(-0.176124 0.0928936 0)
(-0.176219 0.0534062 0)
(-0.176331 0.0133176 0)
(-0.177132 -0.0272994 0)
(-0.179167 -0.0695596 0)
(-0.18298 -0.114707 0)
(-0.187933 -0.16384 0)
(-0.190409 -0.215811 0)
(-0.182526 -0.261666 0)
(-0.154279 -0.275187 0)
(-0.0994 -0.205915 0)
(-0.00890819 -0.0146276 0)
(-0.0061352 0.0775999 0)
(-0.0297915 0.14056 0)
(-0.0614257 0.181228 0)
(-0.0898954 0.208342 0)
(-0.111904 0.21493 0)
(-0.125439 0.200604 0)
(-0.132127 0.171373 0)
(-0.134275 0.134212 0)
(-0.134333 0.0941008 0)
(-0.13423 0.0537438 0)
(-0.134634 0.0138653 0)
(-0.135727 -0.0258764 0)
(-0.137961 -0.0664623 0)
(-0.14203 -0.109073 0)
(-0.148549 -0.155659 0)
(-0.15622 -0.208578 0)
(-0.159081 -0.265908 0)
(-0.146755 -0.308148 0)
(-0.112258 -0.277223 0)
(-0.0309655 -0.0753403 0)
(-0.00272981 0.0936183 0)
(-0.0204186 0.165651 0)
(-0.0451536 0.205619 0)
(-0.0663487 0.228609 0)
(-0.0816169 0.229571 0)
(-0.0901064 0.209584 0)
(-0.0937362 0.175832 0)
(-0.0946448 0.135797 0)
(-0.0949184 0.0944549 0)
(-0.0957106 0.054021 0)
(-0.0970585 0.014594 0)
(-0.0988678 -0.0245722 0)
(-0.101305 -0.0642101 0)
(-0.104876 -0.104972 0)
(-0.110727 -0.14845 0)
(-0.119594 -0.198573 0)
(-0.128353 -0.259808 0)
(-0.12653 -0.323477 0)
(-0.107485 -0.334784 0)
(-0.0373506 -0.163445 0)
(0.00121953 0.102764 0)
(-0.00894323 0.183492 0)
(-0.0256458 0.223174 0)
(-0.0396447 0.242793 0)
(-0.0491238 0.239558 0)
(-0.0539957 0.215583 0)
(-0.0559632 0.178828 0)
(-0.0566731 0.137132 0)
(-0.0576311 0.0953819 0)
(-0.0593708 0.0552572 0)
(-0.0616622 0.0163081 0)
(-0.0643619 -0.0224792 0)
(-0.067461 -0.0617133 0)
(-0.071138 -0.101595 0)
(-0.0763253 -0.142795 0)
(-0.0845929 -0.18894 0)
(-0.096066 -0.24837 0)
(-0.100654 -0.324342 0)
(-0.0951763 -0.37225 0)
(-0.0309241 -0.242595 0)
(0.00511824 0.10393 0)
(0.00295772 0.193092 0)
(-0.00538936 0.233668 0)
(-0.0125059 0.250825 0)
(-0.0168963 0.24474 0)
(-0.0187825 0.218522 0)
(-0.0194695 0.18046 0)
(-0.0199961 0.138386 0)
(-0.0212928 0.0969339 0)
(-0.0235277 0.0574053 0)
(-0.0264158 0.0190779 0)
(-0.0298986 -0.0191557 0)
(-0.0339924 -0.0579524 0)
(-0.0386361 -0.0973651 0)
(-0.0443755 -0.137313 0)
(-0.0524383 -0.180182 0)
(-0.0657588 -0.235664 0)
(-0.0742228 -0.318118 0)
(-0.0812005 -0.396754 0)
(-0.0229425 -0.307154 0)
(0.00845683 0.097456 0)
(0.0142201 0.194085 0)
(0.0141034 0.237191 0)
(0.0137092 0.253606 0)
(0.0143322 0.246525 0)
(0.0155295 0.219817 0)
(0.0163894 0.181768 0)
(0.0164435 0.140055 0)
(0.0153056 0.0991203 0)
(0.0130282 0.0602038 0)
(0.00986025 0.0226203 0)
(0.00575261 -0.0147417 0)
(0.000562208 -0.0526693 0)
(-0.00556195 -0.0912601 0)
(-0.0130282 -0.130144 0)
(-0.0219752 -0.170322 0)
(-0.0377167 -0.220706 0)
(-0.0487314 -0.304477 0)
(-0.0679052 -0.408498 0)
(-0.0144595 -0.360036 0)
(0.0103276 0.0844785 0)
(0.0234167 0.186489 0)
(0.03108 0.233315 0)
(0.0370094 0.250151 0)
(0.0426709 0.243311 0)
(0.0476252 0.217525 0)
(0.0510618 0.180763 0)
(0.0527367 0.140359 0)
(0.0526039 0.100602 0)
(0.0508732 0.0628017 0)
(0.0477626 0.0264501 0)
(0.043155 -0.00951163 0)
(0.0368829 -0.0459763 0)
(0.0290697 -0.0831006 0)
(0.0189177 -0.120518 0)
(0.00759427 -0.158455 0)
(-0.0118189 -0.204418 0)
(-0.024243 -0.286479 0)
(-0.0558461 -0.411006 0)
(-0.00613822 -0.401884 0)
(0.00987605 0.0672303 0)
(0.0290264 0.170682 0)
(0.0443515 0.222225 0)
(0.0568933 0.241318 0)
(0.0681864 0.23639 0)
(0.0778728 0.213027 0)
(0.0850931 0.178735 0)
(0.0895465 0.140396 0)
(0.0913097 0.10224 0)
(0.0906827 0.0658112 0)
(0.087996 0.0309723 0)
(0.0829469 -0.00329491 0)
(0.0754338 -0.0375261 0)
(0.065744 -0.0722977 0)
(0.052496 -0.107415 0)
(0.037566 -0.142759 0)
(0.0131272 -0.184247 0)
(7.52435e-05 -0.263241 0)
(-0.0448003 -0.406708 0)
(0.00276468 -0.436264 0)
(0.00692827 0.0493958 0)
(0.0293606 0.148961 0)
(0.0511079 0.203636 0)
(0.0699858 0.224553 0)
(0.0874613 0.221694 0)
(0.103155 0.201535 0)
(0.115824 0.170942 0)
(0.124788 0.136053 0)
(0.129958 0.100859 0)
(0.131576 0.0670371 0)
(0.129911 0.0348373 0)
(0.124987 0.00343496 0)
(0.116357 -0.0274521 0)
(0.104627 -0.0586824 0)
(0.0875365 -0.0902993 0)
(0.0683502 -0.122913 0)
(0.0382897 -0.160834 0)
(0.0238545 -0.237144 0)
(-0.034443 -0.398957 0)
(0.0134736 -0.464425 0)
(0.00238648 0.0346284 0)
(0.0236374 0.123896 0)
(0.050953 0.179945 0)
(0.0766843 0.202941 0)
(0.101349 0.202629 0)
(0.124232 0.186227 0)
(0.143685 0.160171 0)
(0.158492 0.129742 0)
(0.168236 0.0985524 0)
(0.173124 0.0682911 0)
(0.173098 0.0395552 0)
(0.168869 0.0119386 0)
(0.159033 -0.0149019 0)
(0.145302 -0.0417005 0)
(0.124001 -0.0687379 0)
(0.100464 -0.0975365 0)
(0.0646132 -0.132692 0)
(0.0470013 -0.207445 0)
(-0.0227083 -0.387078 0)
(0.028531 -0.485555 0)
(-0.00342574 0.0286178 0)
(0.0100694 0.1015 0)
(0.0371066 0.148693 0)
(0.0689707 0.169456 0)
(0.101865 0.170675 0)
(0.133584 0.158384 0)
(0.161581 0.137949 0)
(0.184126 0.113547 0)
(0.200173 0.0882615 0)
(0.210096 0.063623 0)
(0.213019 0.0403764 0)
(0.210765 0.0184037 0)
(0.200501 -0.00266992 0)
(0.18587 -0.0233025 0)
(0.161058 -0.0439652 0)
(0.134443 -0.0677254 0)
(0.0929152 -0.101677 0)
(0.06987 -0.180002 0)
(-0.00437107 -0.370049 0)
(0.0521595 -0.491639 0)
(-0.0140089 0.0185214 0)
(-0.00751553 0.0881771 0)
(0.0192159 0.124192 0)
(0.0564472 0.137315 0)
(0.0975995 0.136905 0)
(0.137981 0.127722 0)
(0.174233 0.113065 0)
(0.204077 0.0952868 0)
(0.22597 0.0768154 0)
(0.241062 0.0586684 0)
(0.247096 0.0417986 0)
(0.248011 0.0261074 0)
(0.238673 0.0117473 0)
(0.226858 -0.00204141 0)
(0.201862 -0.0160793 0)
(0.177881 -0.0350147 0)
(0.133539 -0.0677933 0)
(0.107832 -0.145996 0)
(0.037469 -0.326119 0)
(0.0923661 -0.455871 0)
(-0.106017 0.0824209 0)
(-0.077758 0.0689935 0)
(-0.0485682 0.0733688 0)
(0.00377752 0.0778863 0)
(0.0572897 0.0782188 0)
(0.110019 0.073954 0)
(0.157185 0.0666189 0)
(0.199545 0.0572148 0)
(0.231654 0.0475399 0)
(0.259805 0.0378847 0)
(0.275531 0.0292192 0)
(0.290686 0.0212346 0)
(0.29104 0.0144787 0)
(0.295153 0.00809658 0)
(0.278854 0.00112965 0)
(0.271643 -0.010008 0)
(0.232336 -0.0355637 0)
(0.218138 -0.0954173 0)
(0.150207 -0.229723 0)
(0.170672 -0.341456 0)
(0.12997 0.103745 0)
(0.158322 0.0752301 0)
(0.212169 0.0532302 0)
(0.270677 0.0416249 0)
(0.323252 0.0359145 0)
(0.375691 0.0319494 0)
(0.420284 0.0289169 0)
(0.4656 0.0255812 0)
(0.498694 0.0229032 0)
(0.533942 0.0197109 0)
(0.553379 0.0175483 0)
(0.579189 0.0146106 0)
(0.585328 0.0131661 0)
(0.603669 0.0103473 0)
(0.595092 0.00938514 0)
(0.603596 0.00500124 0)
(0.56779 9.03497e-05 0)
(0.547615 -0.0183153 0)
(0.435694 -0.0504145 0)
(0.336755 -0.101386 0)
)
;

boundaryField
{
    movingWall
    {
        type            fixedValue;
        value           uniform (1 0 0);
    }
    fixedWalls
    {
        type            noSlip;
    }
    frontAndBack
    {
        type            empty;
    }
}


// ************************************************************************* //
