/*--------------------------------*- C++ -*----------------------------------*\
| =========                 |                                                 |
| \\      /  F ield         | OpenFOAM: The Open Source CFD Toolbox           |
|  \\    /   O peration     | Version:  2212                                  |
|   \\  /    A nd           | Website:  www.openfoam.com                      |
|    \\/     M anipulation  |                                                 |
\*---------------------------------------------------------------------------*/
FoamFile
{
    version     2.0;
    format      ascii;
    arch        "LSB;label=32;scalar=64";
    class       volScalarField;
    location    "3.3";
    object      T;
}
// * * * * * * * * * * * * * * * * * * * * * * * * * * * * * * * * * * * * * //

dimensions      [0 0 0 1 0 0 0];

internalField   nonuniform List<scalar> 
400
(
0.290386
0.314783
0.363373
0.433631
0.51372
0.584993
0.634128
0.660568
0.672876
0.679605
0.684157
0.687346
0.689329
0.689595
0.687146
0.679967
0.66475
0.636313
0.595259
0.561736
0.320713
0.350473
0.409014
0.490579
0.574824
0.635959
0.666663
0.679963
0.687452
0.692746
0.697233
0.701593
0.705851
0.709146
0.709403
0.702958
0.684377
0.648507
0.601277
0.565722
0.368682
0.408398
0.480923
0.566814
0.635662
0.671145
0.684192
0.689459
0.691361
0.692311
0.694505
0.699416
0.707249
0.717345
0.72658
0.729281
0.715686
0.674615
0.612543
0.572914
0.417291
0.467697
0.548682
0.624288
0.668212
0.681757
0.68153
0.675497
0.666683
0.6595
0.656859
0.66141
0.67315
0.692464
0.716433
0.739181
0.748379
0.724205
0.650054
0.593443
0.457238
0.515678
0.597014
0.654824
0.67506
0.670597
0.655709
0.635271
0.614809
0.599315
0.591714
0.594751
0.608357
0.633875
0.670023
0.7131
0.75313
0.769101
0.722945
0.634928
0.486778
0.549227
0.625127
0.66393
0.664093
0.643866
0.614701
0.582272
0.553799
0.533182
0.522614
0.523642
0.53664
0.563097
0.603579
0.657106
0.718423
0.773187
0.786287
0.697361
0.507331
0.570088
0.637832
0.659759
0.644004
0.611028
0.571115
0.531728
0.499919
0.477923
0.466727
0.466485
0.477818
0.502194
0.541477
0.596891
0.666557
0.741982
0.801252
0.78187
0.520805
0.581238
0.640744
0.649688
0.622242
0.579968
0.533363
0.491093
0.458945
0.437583
0.426758
0.425721
0.434893
0.455695
0.490833
0.543764
0.615937
0.701681
0.784032
0.828913
0.529062
0.585672
0.638231
0.638392
0.603128
0.55493
0.504979
0.462249
0.431103
0.411048
0.400894
0.399486
0.40691
0.424178
0.453783
0.500539
0.570379
0.662606
0.758905
0.820649
0.533328
0.58543
0.633007
0.628808
0.589529
0.538218
0.486922
0.44456
0.414448
0.395371
0.385573
0.383836
0.390134
0.405122
0.430372
0.470184
0.53358
0.627616
0.738492
0.815667
0.534508
0.581984
0.626592
0.621836
0.58166
0.52948
0.478219
0.436481
0.406967
0.388204
0.378238
0.375934
0.381292
0.394793
0.41713
0.451015
0.506236
0.597328
0.718192
0.812178
0.533172
0.576126
0.61921
0.617419
0.579824
0.529059
0.478811
0.437517
0.407864
0.388658
0.378064
0.375011
0.379466
0.391825
0.41223
0.441557
0.488368
0.573942
0.702832
0.810587
0.52945
0.568394
0.611009
0.61476
0.58262
0.53531
0.487121
0.446545
0.416604
0.396685
0.38527
0.381335
0.384762
0.395803
0.414347
0.440006
0.478693
0.555892
0.689767
0.810588
0.523101
0.558636
0.600849
0.611967
0.588652
0.54782
0.503598
0.464633
0.434574
0.413709
0.401134
0.39594
0.397971
0.407195
0.423337
0.445314
0.476696
0.544765
0.681346
0.812121
0.513841
0.547608
0.589237
0.607448
0.5944
0.562401
0.524439
0.489054
0.460373
0.439493
0.426183
0.419733
0.419971
0.426619
0.439274
0.457014
0.481794
0.539393
0.67599
0.815059
0.50196
0.534549
0.575034
0.599551
0.598217
0.578045
0.549467
0.520289
0.494912
0.475148
0.461442
0.453516
0.451145
0.454068
0.461981
0.474334
0.493028
0.539612
0.674925
0.819644
0.490944
0.523132
0.560772
0.587171
0.594248
0.58556
0.568144
0.548046
0.529037
0.513068
0.500855
0.492541
0.487971
0.487047
0.490114
0.496917
0.51129
0.549779
0.681859
0.827309
0.48263
0.512077
0.548544
0.575281
0.588299
0.589428
0.582809
0.572145
0.560282
0.548939
0.539111
0.531252
0.52582
0.522694
0.523367
0.52705
0.540706
0.573977
0.697293
0.837238
0.425237
0.515812
0.533951
0.551046
0.560169
0.564548
0.565474
0.56504
0.563757
0.563195
0.563163
0.564485
0.567163
0.57088
0.577678
0.585184
0.603904
0.636394
0.735222
0.854172
0.591719
0.644176
0.674731
0.695764
0.710187
0.721321
0.729774
0.737505
0.743904
0.750569
0.756333
0.762777
0.768388
0.77489
0.780572
0.787795
0.7954
0.810578
0.837932
0.890168
)
;

boundaryField
{
    movingWall
    {
        type            fixedValue;
        value           uniform 1;
    }
    fixedWalls
    {
        type            zeroGradient;
    }
    frontAndBack
    {
        type            empty;
    }
}


// ************************************************************************* //
