/*--------------------------------*- C++ -*----------------------------------*\
| =========                 |                                                 |
| \\      /  F ield         | OpenFOAM: The Open Source CFD Toolbox           |
|  \\    /   O peration     | Version:  2212                                  |
|   \\  /    A nd           | Website:  www.openfoam.com                      |
|    \\/     M anipulation  |                                                 |
\*---------------------------------------------------------------------------*/
FoamFile
{
    version     2.0;
    format      ascii;
    arch        "LSB;label=32;scalar=64";
    class       volScalarField;
    location    "12.1";
    object      p;
}
// * * * * * * * * * * * * * * * * * * * * * * * * * * * * * * * * * * * * * //

dimensions      [0 2 -2 0 0 0 0];

internalField   nonuniform List<scalar> 
400
(
3.88502e-07
-0.000150615
-0.000534697
-0.0010719
-0.00173263
-0.00249411
-0.00318524
-0.00359781
-0.00356559
-0.00293432
-0.00154876
0.000619197
0.00324942
0.00551394
0.00653362
0.00592273
0.00400192
0.00214949
0.00111048
0.00104143
0.000116271
-5.8145e-05
-0.000377092
-0.000764268
-0.00124419
-0.00188832
-0.00270645
-0.00354378
-0.00408027
-0.00393868
-0.00284668
-0.000825084
0.00168918
0.00396076
0.00512455
0.00474294
0.00310283
0.00137459
0.000592995
0.000684037
0.00053639
0.000264919
-7.73743e-05
-0.000559735
-0.00134744
-0.00258085
-0.00421942
-0.00598411
-0.00740292
-0.00794423
-0.00726453
-0.00546231
-0.00289194
-0.000194907
0.00179151
0.00242752
0.00170859
0.000501887
-0.000396304
-0.000393015
0.00115191
0.000741217
0.000191826
-0.000774917
-0.00245132
-0.00493811
-0.00799551
-0.0111209
-0.0137038
-0.0151774
-0.0152072
-0.0138403
-0.011294
-0.00802944
-0.00475262
-0.00221011
-0.000870791
-0.000706631
-0.00128924
-0.00191857
0.0015833
0.000973699
-2.29319e-05
-0.00192424
-0.00500693
-0.00918044
-0.0139141
-0.0184802
-0.0222166
-0.0246533
-0.025529
-0.0247232
-0.0223638
-0.0187438
-0.014305
-0.00965608
-0.00559251
-0.00294932
-0.00219368
-0.0040184
0.00129336
0.000445008
-0.00119742
-0.00430457
-0.00900534
-0.014881
-0.0210732
-0.0267157
-0.0311917
-0.034179
-0.0355458
-0.0351898
-0.0331972
-0.0297189
-0.0248997
-0.0189613
-0.0125056
-0.00694874
-0.0044013
-0.0065246
-4.83187e-05
-0.00114759
-0.00349956
-0.00779705
-0.0139329
-0.0211148
-0.0282367
-0.0344082
-0.0391291
-0.0422325
-0.0437202
-0.0436108
-0.041973
-0.038879
-0.0343111
-0.0281574
-0.0205393
-0.0127032
-0.00785516
-0.00774836
-0.0024505
-0.00374222
-0.00669872
-0.0119136
-0.0190402
-0.0269823
-0.0345046
-0.0407797
-0.0454513
-0.0484775
-0.0499402
-0.0499314
-0.0485307
-0.0457887
-0.0416626
-0.0359269
-0.0283258
-0.0193713
-0.0118226
-0.00798088
-0.00553768
-0.00691528
-0.0102638
-0.0160222
-0.0236585
-0.0318899
-0.0394518
-0.0456134
-0.0501379
-0.053058
-0.0544872
-0.0545273
-0.0532531
-0.0507261
-0.0469624
-0.0418123
-0.0348681
-0.0259479
-0.0167094
-0.00999484
-0.00873381
-0.010086
-0.0135978
-0.0195424
-0.0272867
-0.0354875
-0.0429126
-0.0489103
-0.05331
-0.0561679
-0.0575919
-0.0576631
-0.0564447
-0.0540115
-0.0504514
-0.0457607
-0.0396343
-0.0315242
-0.0223215
-0.0143401
-0.0115042
-0.012758
-0.0162194
-0.0220545
-0.0296074
-0.037589
-0.0448268
-0.0506997
-0.0550431
-0.0578946
-0.0593369
-0.0594284
-0.0582192
-0.0557892
-0.0522871
-0.0478526
-0.0424313
-0.0353828
-0.0271982
-0.0191796
-0.0135494
-0.0146187
-0.017856
-0.0233156
-0.0304311
-0.038063
-0.045118
-0.05095
-0.0553293
-0.0582407
-0.0597284
-0.0598308
-0.0585887
-0.0560833
-0.0525157
-0.0481382
-0.043207
-0.0370565
-0.0300321
-0.0224174
-0.0148374
-0.0155679
-0.0183518
-0.0232103
-0.0296934
-0.0368789
-0.0437647
-0.0496403
-0.054155
-0.0572011
-0.0587701
-0.0588772
-0.0575579
-0.054916
-0.0511772
-0.0466559
-0.0419655
-0.0363002
-0.0302262
-0.022896
-0.0154677
-0.015722
-0.0177772
-0.0217462
-0.0273896
-0.0340315
-0.0407505
-0.0467405
-0.0514929
-0.0547682
-0.0564821
-0.0566232
-0.0552015
-0.0523529
-0.0483461
-0.0435817
-0.0387306
-0.0331414
-0.0280996
-0.0202793
-0.0155743
-0.0152981
-0.0163379
-0.0190877
-0.023653
-0.029634
-0.0361715
-0.0423357
-0.0474275
-0.0510394
-0.0529801
-0.0531834
-0.0516908
-0.0485913
-0.0442266
-0.0390537
-0.0337817
-0.0280715
-0.0242315
-0.0143849
-0.0152767
-0.01455
-0.0142607
-0.0154258
-0.0186847
-0.0238945
-0.0302313
-0.0366146
-0.0421377
-0.0462011
-0.0484892
-0.0488662
-0.047353
-0.0440208
-0.0392487
-0.0335188
-0.0276411
-0.0216292
-0.0180534
-0.00383284
-0.0146619
-0.0136181
-0.0117067
-0.0110809
-0.0129535
-0.0173802
-0.0235339
-0.0301703
-0.0361931
-0.0408114
-0.0435785
-0.0442615
-0.0428505
-0.0393762
-0.0341851
-0.0276896
-0.0206822
-0.0132761
-0.00678573
0.016053
-0.0145831
-0.0126571
-0.00864837
-0.00623453
-0.00690998
-0.0107457
-0.0168178
-0.0237398
-0.0302985
-0.0355391
-0.0389035
-0.0400349
-0.0388774
-0.0354479
-0.0298957
-0.0222757
-0.0128725
-0.000688123
0.0166951
0.0570639
-0.0117945
-0.0118306
-0.00572602
-0.00177495
-0.00176492
-0.00540466
-0.0115751
-0.0188148
-0.0258754
-0.0316873
-0.0356622
-0.0373617
-0.0366852
-0.0333552
-0.0272241
-0.0175415
-0.00314819
0.0204903
0.0607044
0.129821
-0.0295167
-0.0106296
-0.000608787
0.00308088
0.00244831
-0.00155695
-0.00799938
-0.0155533
-0.022976
-0.0291737
-0.0335318
-0.0355878
-0.035201
-0.0319556
-0.0252275
-0.0128599
0.00942267
0.0511715
0.122878
0.226076
)
;

boundaryField
{
    movingWall
    {
        type            zeroGradient;
    }
    fixedWalls
    {
        type            zeroGradient;
    }
    frontAndBack
    {
        type            empty;
    }
}


// ************************************************************************* //
