/*--------------------------------*- C++ -*----------------------------------*\
| =========                 |                                                 |
| \\      /  F ield         | OpenFOAM: The Open Source CFD Toolbox           |
|  \\    /   O peration     | Version:  2212                                  |
|   \\  /    A nd           | Website:  www.openfoam.com                      |
|    \\/     M anipulation  |                                                 |
\*---------------------------------------------------------------------------*/
FoamFile
{
    version     2.0;
    format      ascii;
    arch        "LSB;label=32;scalar=64";
    class       volScalarField;
    location    "14.8";
    object      T;
}
// * * * * * * * * * * * * * * * * * * * * * * * * * * * * * * * * * * * * * //

dimensions      [0 0 0 1 0 0 0];

internalField   nonuniform List<scalar> 
400
(
0.959817
0.960668
0.962396
0.964955
0.967942
0.970669
0.972627
0.973768
0.974387
0.974807
0.97519
0.975585
0.976009
0.976447
0.976832
0.977054
0.976933
0.976279
0.975197
0.974311
0.960905
0.961949
0.964042
0.967038
0.970211
0.972554
0.973704
0.974107
0.974245
0.974349
0.974562
0.974969
0.975597
0.976412
0.977249
0.977859
0.977858
0.976956
0.975534
0.974511
0.962605
0.964009
0.966613
0.969751
0.972223
0.973272
0.973233
0.972731
0.972103
0.971627
0.971547
0.972029
0.973081
0.97467
0.97651
0.97818
0.978978
0.978204
0.976154
0.974882
0.964271
0.966046
0.968887
0.971431
0.972515
0.972032
0.970646
0.968882
0.96714
0.965852
0.965348
0.965907
0.967458
0.970036
0.973287
0.976706
0.97936
0.980018
0.977747
0.975751
0.965552
0.96754
0.970158
0.971572
0.971016
0.968881
0.965896
0.962607
0.959601
0.957408
0.956418
0.956954
0.958929
0.962415
0.967096
0.972467
0.977584
0.980995
0.980609
0.977362
0.966394
0.968371
0.970392
0.970426
0.968171
0.964331
0.959677
0.954898
0.950731
0.94774
0.94632
0.946729
0.948961
0.953055
0.958804
0.965776
0.973146
0.979548
0.982735
0.979718
0.966859
0.968621
0.969831
0.968467
0.964628
0.959209
0.953068
0.947068
0.942034
0.938513
0.936834
0.937131
0.939445
0.943792
0.950094
0.958088
0.967104
0.975882
0.982409
0.983099
0.967052
0.968503
0.9689
0.966308
0.961107
0.954343
0.94701
0.940128
0.934548
0.93076
0.928982
0.929234
0.931523
0.935848
0.942225
0.950629
0.960701
0.971305
0.980355
0.984907
0.967061
0.968177
0.96786
0.96429
0.958035
0.950266
0.942101
0.934652
0.928761
0.924848
0.923028
0.923261
0.925503
0.929702
0.935871
0.944162
0.95467
0.96665
0.977722
0.984087
0.966955
0.967795
0.966992
0.962811
0.955876
0.947443
0.938731
0.930918
0.924823
0.920802
0.91891
0.91909
0.921277
0.92537
0.931285
0.939173
0.949536
0.962344
0.97534
0.983466
0.966774
0.967421
0.966348
0.961877
0.954617
0.945879
0.93694
0.928972
0.922756
0.918613
0.916583
0.916631
0.918705
0.922681
0.928371
0.935774
0.945584
0.958614
0.973126
0.98307
0.966539
0.967098
0.966017
0.961654
0.954487
0.945812
0.936918
0.928946
0.922652
0.918361
0.916141
0.915978
0.917838
0.921601
0.927018
0.933899
0.942899
0.955666
0.971353
0.982853
0.966246
0.966805
0.965889
0.96192
0.955192
0.946931
0.93839
0.930652
0.924441
0.920094
0.917709
0.917293
0.918833
0.922219
0.927201
0.933481
0.941491
0.953509
0.969955
0.982829
0.965877
0.966521
0.965951
0.962694
0.956807
0.949348
0.94149
0.934234
0.928267
0.923948
0.921419
0.920686
0.921781
0.924596
0.928913
0.934395
0.94129
0.952256
0.969052
0.982961
0.965393
0.966169
0.96594
0.963459
0.958619
0.952271
0.945444
0.939023
0.933619
0.929574
0.927056
0.926064
0.926649
0.92873
0.932134
0.936634
0.942338
0.951894
0.968582
0.983254
0.96482
0.965763
0.965978
0.964402
0.960836
0.955885
0.950387
0.945072
0.940466
0.936871
0.934453
0.933238
0.933239
0.934438
0.936733
0.940016
0.944429
0.952284
0.968568
0.983715
0.964249
0.965177
0.965534
0.964613
0.962221
0.958753
0.954793
0.950877
0.947387
0.944558
0.942496
0.94126
0.940813
0.941201
0.942418
0.944449
0.9477
0.954061
0.96952
0.9845
0.963846
0.96497
0.965665
0.965298
0.963953
0.961863
0.95937
0.956802
0.954396
0.952335
0.950681
0.949512
0.948818
0.948646
0.949104
0.950149
0.952539
0.957429
0.9713
0.98549
0.958402
0.963762
0.963751
0.963565
0.962841
0.961874
0.960769
0.95974
0.958796
0.958099
0.957588
0.957356
0.957369
0.957609
0.958259
0.959091
0.961224
0.964938
0.975459
0.987186
0.970782
0.974315
0.976206
0.977341
0.977947
0.978328
0.978527
0.978731
0.978874
0.979098
0.979296
0.979596
0.979874
0.980253
0.980618
0.981125
0.981772
0.983137
0.985859
0.990654
)
;

boundaryField
{
    movingWall
    {
        type            fixedValue;
        value           uniform 1;
    }
    fixedWalls
    {
        type            zeroGradient;
    }
    frontAndBack
    {
        type            empty;
    }
}


// ************************************************************************* //
