/*--------------------------------*- C++ -*----------------------------------*\
| =========                 |                                                 |
| \\      /  F ield         | OpenFOAM: The Open Source CFD Toolbox           |
|  \\    /   O peration     | Version:  2212                                  |
|   \\  /    A nd           | Website:  www.openfoam.com                      |
|    \\/     M anipulation  |                                                 |
\*---------------------------------------------------------------------------*/
FoamFile
{
    version     2.0;
    format      ascii;
    arch        "LSB;label=32;scalar=64";
    class       volScalarField;
    location    "4.4";
    object      T;
}
// * * * * * * * * * * * * * * * * * * * * * * * * * * * * * * * * * * * * * //

dimensions      [0 0 0 1 0 0 0];

internalField   nonuniform List<scalar> 
400
(
0.50191
0.519001
0.553265
0.603106
0.659735
0.709362
0.74259
0.759608
0.767036
0.771134
0.774244
0.776834
0.77898
0.780372
0.780308
0.777481
0.769737
0.753921
0.730409
0.711001
0.524735
0.545195
0.585876
0.643088
0.701787
0.743042
0.762177
0.769314
0.772911
0.775535
0.778223
0.781496
0.785415
0.789432
0.792023
0.790658
0.781557
0.761379
0.734009
0.713308
0.56016
0.586966
0.63654
0.695513
0.741525
0.762933
0.768465
0.769015
0.767805
0.766766
0.767619
0.77153
0.778559
0.788257
0.798195
0.80435
0.799861
0.77726
0.740716
0.717435
0.595062
0.628592
0.682828
0.732761
0.759229
0.763653
0.758691
0.750222
0.740651
0.733427
0.730833
0.734957
0.745491
0.762715
0.784082
0.805213
0.817263
0.806888
0.763307
0.729506
0.622837
0.661125
0.714076
0.749618
0.757656
0.748015
0.731426
0.711535
0.692703
0.678897
0.672594
0.676048
0.68886
0.711878
0.743485
0.780376
0.814863
0.832289
0.807718
0.754285
0.64275
0.682922
0.730452
0.75084
0.743109
0.720839
0.692522
0.662474
0.636475
0.61797
0.609137
0.611394
0.624794
0.650109
0.68697
0.733645
0.785183
0.830538
0.845728
0.792009
0.656163
0.695635
0.735859
0.7427
0.72216
0.689187
0.651329
0.614408
0.584395
0.563841
0.554157
0.555662
0.568659
0.593776
0.631649
0.682124
0.742427
0.804802
0.852593
0.844289
0.664673
0.701779
0.734859
0.731045
0.700674
0.659321
0.614749
0.573955
0.54233
0.52149
0.511908
0.513109
0.525159
0.548571
0.584633
0.634982
0.699411
0.771993
0.838386
0.873304
0.66969
0.703599
0.730681
0.719333
0.682021
0.634884
0.586288
0.543737
0.511836
0.491449
0.482273
0.483441
0.49467
0.51611
0.548883
0.595764
0.660104
0.739651
0.8186
0.866965
0.672159
0.702708
0.725622
0.710229
0.66897
0.618375
0.567578
0.524256
0.49239
0.472313
0.463243
0.46424
0.474901
0.495044
0.525029
0.567298
0.627843
0.710404
0.801909
0.862881
0.672729
0.70012
0.720654
0.704201
0.661581
0.609653
0.558248
0.514872
0.483042
0.46285
0.453366
0.453767
0.463715
0.482893
0.510907
0.548915
0.603715
0.685198
0.785742
0.860076
0.671811
0.696399
0.716133
0.701675
0.660666
0.609574
0.55881
0.515696
0.483625
0.462825
0.452484
0.4519
0.460791
0.47884
0.505222
0.539598
0.587897
0.665678
0.773317
0.85875
0.669485
0.691773
0.711802
0.701586
0.664694
0.616444
0.567676
0.525592
0.493626
0.472303
0.461041
0.459226
0.466636
0.482943
0.507217
0.538184
0.579707
0.651051
0.763069
0.858713
0.665593
0.686123
0.706991
0.702938
0.673118
0.63038
0.585467
0.545499
0.514117
0.492342
0.480005
0.476559
0.481912
0.495631
0.516828
0.543794
0.578643
0.642408
0.756546
0.859889
0.659943
0.67962
0.701179
0.703391
0.682106
0.647034
0.608115
0.572189
0.542968
0.521837
0.509034
0.50409
0.506981
0.517242
0.534073
0.556179
0.584486
0.63907
0.752724
0.862181
0.652867
0.671996
0.694078
0.70245
0.691205
0.666317
0.635909
0.606137
0.58067
0.561186
0.548279
0.541781
0.541549
0.547314
0.558536
0.574472
0.596178
0.640544
0.752297
0.865773
0.646354
0.664845
0.685642
0.697062
0.69389
0.679388
0.659139
0.637892
0.618658
0.603053
0.591672
0.584687
0.581849
0.583173
0.588735
0.598228
0.614505
0.650782
0.758505
0.871761
0.641602
0.65907
0.679793
0.692932
0.696071
0.690856
0.680523
0.667995
0.655428
0.644196
0.634961
0.628128
0.623866
0.6222
0.624136
0.629072
0.642512
0.672175
0.771113
0.879422
0.59839
0.658331
0.667755
0.67627
0.67913
0.67879
0.676262
0.673236
0.670035
0.667892
0.666561
0.666687
0.66818
0.670821
0.676107
0.68224
0.697462
0.723686
0.801393
0.892492
0.715905
0.751844
0.772341
0.786023
0.794954
0.801604
0.806411
0.810856
0.814473
0.818442
0.821895
0.825968
0.829569
0.833898
0.837772
0.842813
0.84842
0.859727
0.880753
0.919831
)
;

boundaryField
{
    movingWall
    {
        type            fixedValue;
        value           uniform 1;
    }
    fixedWalls
    {
        type            zeroGradient;
    }
    frontAndBack
    {
        type            empty;
    }
}


// ************************************************************************* //
