/*--------------------------------*- C++ -*----------------------------------*\
| =========                 |                                                 |
| \\      /  F ield         | OpenFOAM: The Open Source CFD Toolbox           |
|  \\    /   O peration     | Version:  2212                                  |
|   \\  /    A nd           | Website:  www.openfoam.com                      |
|    \\/     M anipulation  |                                                 |
\*---------------------------------------------------------------------------*/
FoamFile
{
    version     2.0;
    format      ascii;
    arch        "LSB;label=32;scalar=64";
    class       volVectorField;
    location    "5.8";
    object      U;
}
// * * * * * * * * * * * * * * * * * * * * * * * * * * * * * * * * * * * * * //

dimensions      [0 1 -1 0 0 0 0];

internalField   nonuniform List<vector> 
400
(
(0.00167848 -0.00168013 0)
(0.00482718 -0.001888 0)
(0.00657236 -0.00119833 0)
(0.00565372 -0.000573543 0)
(0.00155298 0.000185392 0)
(-0.00683978 0.00173912 0)
(-0.020601 0.00478011 0)
(-0.0395077 0.00872215 0)
(-0.0607515 0.0112771 0)
(-0.0790647 0.0105039 0)
(-0.0897443 0.00677513 0)
(-0.0904136 0.00167679 0)
(-0.0802073 -0.00360342 0)
(-0.0600095 -0.00826059 0)
(-0.0335682 -0.0108355 0)
(-0.00536036 -0.00979047 0)
(0.0166529 -0.00478238 0)
(0.0244171 0.002764 0)
(0.0161558 0.00646048 0)
(0.00431289 0.00471141 0)
(0.00171367 -0.00505039 0)
(0.00314344 -0.0040167 0)
(-0.000442763 0.000594729 0)
(-0.0113488 0.00643957 0)
(-0.0314214 0.0140362 0)
(-0.0611039 0.0237426 0)
(-0.0967527 0.0330147 0)
(-0.131328 0.0370455 0)
(-0.15882 0.0334856 0)
(-0.175948 0.0233922 0)
(-0.181307 0.00912281 0)
(-0.174958 -0.00695802 0)
(-0.157473 -0.0231285 0)
(-0.1296 -0.0368647 0)
(-0.0936024 -0.0445237 0)
(-0.0522194 -0.0418168 0)
(-0.0114489 -0.0263438 0)
(0.0168343 -0.0013132 0)
(0.0178415 0.0161888 0)
(0.00553693 0.0148005 0)
(-0.000246406 -0.00575304 0)
(-0.00539441 0.000826108 0)
(-0.0196155 0.0142983 0)
(-0.0444817 0.0312043 0)
(-0.0802683 0.0493822 0)
(-0.122073 0.0642345 0)
(-0.162169 0.0704576 0)
(-0.195056 0.0659565 0)
(-0.218626 0.0521479 0)
(-0.232287 0.0315261 0)
(-0.236049 0.00644494 0)
(-0.230581 -0.0210522 0)
(-0.216194 -0.0487875 0)
(-0.192385 -0.0731318 0)
(-0.158891 -0.0889405 0)
(-0.115675 -0.089173 0)
(-0.0645469 -0.0670193 0)
(-0.0138488 -0.0227115 0)
(0.00946168 0.0178617 0)
(0.00415473 0.0235481 0)
(-0.00347222 0.000485708 0)
(-0.0175066 0.0172548 0)
(-0.0434815 0.0414666 0)
(-0.0795978 0.0681109 0)
(-0.122811 0.0910399 0)
(-0.165645 0.103714 0)
(-0.201669 0.10278 0)
(-0.228957 0.0895765 0)
(-0.247772 0.06727 0)
(-0.258715 0.03857 0)
(-0.262625 0.0053578 0)
(-0.260307 -0.0310282 0)
(-0.251699 -0.0683288 0)
(-0.235757 -0.103596 0)
(-0.210489 -0.131346 0)
(-0.173195 -0.142774 0)
(-0.121312 -0.125704 0)
(-0.0568225 -0.0708664 0)
(-0.00100349 0.0035019 0)
(0.00474161 0.0281998 0)
(-0.00665592 0.0148034 0)
(-0.0286968 0.0440933 0)
(-0.0632108 0.0770108 0)
(-0.104321 0.108779 0)
(-0.147075 0.131036 0)
(-0.184322 0.138021 0)
(-0.212618 0.129348 0)
(-0.232366 0.108626 0)
(-0.244857 0.0797227 0)
(-0.251816 0.0454291 0)
(-0.254931 0.00728539 0)
(-0.255125 -0.0338902 0)
(-0.252172 -0.0769247 0)
(-0.245527 -0.120495 0)
(-0.232377 -0.160622 0)
(-0.208106 -0.18885 0)
(-0.166664 -0.189847 0)
(-0.103364 -0.142822 0)
(-0.0221843 -0.0388966 0)
(0.00737077 0.0270518 0)
(-0.0084975 0.0348642 0)
(-0.0351239 0.0765755 0)
(-0.0729817 0.114815 0)
(-0.113089 0.147507 0)
(-0.150293 0.165814 0)
(-0.17911 0.165756 0)
(-0.198595 0.149571 0)
(-0.210302 0.122351 0)
(-0.216217 0.0884433 0)
(-0.218821 0.050835 0)
(-0.220078 0.0109976 0)
(-0.220987 -0.0306373 0)
(-0.221749 -0.0745331 0)
(-0.222467 -0.121059 0)
(-0.220947 -0.168988 0)
(-0.212099 -0.212831 0)
(-0.187834 -0.238393 0)
(-0.139554 -0.218403 0)
(-0.0627894 -0.118896 0)
(0.00582891 0.0141661 0)
(-0.0082763 0.0569577 0)
(-0.0352783 0.109897 0)
(-0.0717126 0.150305 0)
(-0.106893 0.180942 0)
(-0.136477 0.193617 0)
(-0.156842 0.186232 0)
(-0.16871 0.163094 0)
(-0.174201 0.13035 0)
(-0.175727 0.0927631 0)
(-0.175785 0.0533494 0)
(-0.175877 0.0133508 0)
(-0.176681 -0.0271711 0)
(-0.178744 -0.0693463 0)
(-0.182607 -0.114437 0)
(-0.187622 -0.163551 0)
(-0.19016 -0.215537 0)
(-0.182329 -0.261427 0)
(-0.154128 -0.27499 0)
(-0.0992923 -0.205785 0)
(-0.00890451 -0.0146502 0)
(-0.0061205 0.0775122 0)
(-0.0297317 0.140398 0)
(-0.0613101 0.180992 0)
(-0.0897285 0.208056 0)
(-0.111695 0.214631 0)
(-0.125192 0.200315 0)
(-0.131837 0.171106 0)
(-0.133934 0.133981 0)
(-0.133939 0.0939268 0)
(-0.133791 0.0536539 0)
(-0.13417 0.0138858 0)
(-0.13526 -0.0257331 0)
(-0.137519 -0.0662054 0)
(-0.141636 -0.108736 0)
(-0.148224 -0.155293 0)
(-0.15597 -0.208234 0)
(-0.158895 -0.265618 0)
(-0.146619 -0.307907 0)
(-0.112152 -0.277033 0)
(-0.0309261 -0.0752927 0)
(-0.00272009 0.0934935 0)
(-0.0203705 0.165444 0)
(-0.0450583 0.205341 0)
(-0.0662113 0.228284 0)
(-0.0814444 0.229233 0)
(-0.0899005 0.209255 0)
(-0.0934889 0.175521 0)
(-0.094348 0.135515 0)
(-0.0945711 0.0942312 0)
(-0.0953223 0.0538923 0)
(-0.0966455 0.014595 0)
(-0.0984484 -0.0244244 0)
(-0.100901 -0.0639231 0)
(-0.104508 -0.104578 0)
(-0.110418 -0.148005 0)
(-0.119359 -0.198147 0)
(-0.128186 -0.259456 0)
(-0.12642 -0.323195 0)
(-0.107399 -0.334537 0)
(-0.0373118 -0.163281 0)
(0.00122108 0.102612 0)
(-0.0089154 0.183249 0)
(-0.0255835 0.222862 0)
(-0.039552 0.242436 0)
(-0.0490055 0.239187 0)
(-0.0538516 0.215218 0)
(-0.0557858 0.178474 0)
(-0.0564567 0.136804 0)
(-0.0573769 0.0951141 0)
(-0.0590875 0.0550938 0)
(-0.0613607 0.0162885 0)
(-0.0640525 -0.0223366 0)
(-0.0671557 -0.0614137 0)
(-0.0708514 -0.101167 0)
(-0.0760747 -0.142291 0)
(-0.0843984 -0.188438 0)
(-0.0959322 -0.247953 0)
(-0.100582 -0.324027 0)
(-0.0951224 -0.371983 0)
(-0.0309044 -0.242377 0)
(0.00510943 0.103767 0)
(0.0029597 0.192825 0)
(-0.00536858 0.233334 0)
(-0.0124677 0.250446 0)
(-0.0168435 0.244346 0)
(-0.0187151 0.218131 0)
(-0.0193829 0.180077 0)
(-0.0198878 0.138028 0)
(-0.0211658 0.096637 0)
(-0.0233878 0.0572165 0)
(-0.0262669 0.0190376 0)
(-0.0297419 -0.0190285 0)
(-0.0338294 -0.0576602 0)
(-0.0384726 -0.096931 0)
(-0.044221 -0.136781 0)
(-0.052312 -0.179628 0)
(-0.0656708 -0.235189 0)
(-0.0741905 -0.317769 0)
(-0.0811755 -0.396469 0)
(-0.0229341 -0.306907 0)
(0.00843595 0.0973009 0)
(0.014193 0.193809 0)
(0.0140784 0.236848 0)
(0.0136868 0.253217 0)
(0.014311 0.24612 0)
(0.0155093 0.219412 0)
(0.0163716 0.181371 0)
(0.0164283 0.139683 0)
(0.0152898 0.0988099 0)
(0.0130087 0.060001 0)
(0.00983998 0.0225633 0)
(0.00573902 -0.0146337 0)
(0.000562862 -0.0523974 0)
(-0.00554538 -0.090844 0)
(-0.0129946 -0.129619 0)
(-0.0219397 -0.169749 0)
(-0.0376896 -0.220197 0)
(-0.0487452 -0.304114 0)
(-0.0679101 -0.40822 0)
(-0.014462 -0.359786 0)
(0.0102963 0.084353 0)
(0.0233605 0.186225 0)
(0.0310096 0.232977 0)
(0.0369272 0.249767 0)
(0.0425763 0.242908 0)
(0.0475178 0.217123 0)
(0.0509407 0.180372 0)
(0.0526 0.139997 0)
(0.0524494 0.1003 0)
(0.0507009 0.0626008 0)
(0.0475804 0.0263852 0)
(0.0429771 -0.00942125 0)
(0.0367233 -0.0457294 0)
(0.0289368 -0.0827145 0)
(0.0188233 -0.120021 0)
(0.00752997 -0.157896 0)
(-0.0118594 -0.203898 0)
(-0.0243015 -0.286109 0)
(-0.055876 -0.41074 0)
(-0.00614802 -0.401653 0)
(0.00984226 0.0671529 0)
(0.0289478 0.17045 0)
(0.0442417 0.221911 0)
(0.0567568 0.240954 0)
(0.0680236 0.236005 0)
(0.0776834 0.212643 0)
(0.0848756 0.178364 0)
(0.0892988 0.140057 0)
(0.091031 0.101959 0)
(0.0903765 0.065622 0)
(0.0876719 0.0309045 0)
(0.0826247 -0.00322198 0)
(0.0751322 -0.0373113 0)
(0.0654756 -0.0719548 0)
(0.0522804 -0.106967 0)
(0.0374018 -0.142244 0)
(0.0130165 -0.183752 0)
(-2.20533e-05 -0.262888 0)
(-0.0448507 -0.406467 0)
(0.00274794 -0.436067 0)
(0.00690335 0.0493739 0)
(0.0292725 0.148783 0)
(0.0509708 0.203362 0)
(0.0698081 0.224223 0)
(0.0872452 0.221341 0)
(0.1029 0.201183 0)
(0.11553 0.170607 0)
(0.124452 0.135752 0)
(0.129582 0.100614 0)
(0.131166 0.066874 0)
(0.129478 0.0347784 0)
(0.124552 0.00349668 0)
(0.115941 -0.0272697 0)
(0.104247 -0.0583891 0)
(0.0872197 -0.0899141 0)
(0.0680988 -0.122464 0)
(0.0381152 -0.160391 0)
(0.0237372 -0.236825 0)
(-0.0345064 -0.39875 0)
(0.0134482 -0.464277 0)
(0.00237681 0.0346517 0)
(0.0235612 0.123786 0)
(0.0508105 0.17973 0)
(0.0764856 0.202664 0)
(0.101098 0.202324 0)
(0.123929 0.18592 0)
(0.143331 0.15988 0)
(0.158088 0.129484 0)
(0.167785 0.098344 0)
(0.172635 0.0681527 0)
(0.172585 0.0395026 0)
(0.16835 0.0119835 0)
(0.158533 -0.0147597 0)
(0.144839 -0.0414654 0)
(0.123608 -0.0684257 0)
(0.100146 -0.0971728 0)
(0.0643865 -0.132325 0)
(0.046874 -0.207194 0)
(-0.0227827 -0.38694 0)
(0.0284949 -0.485461 0)
(-0.00341973 0.0286747 0)
(0.010016 0.10146 0)
(0.0369809 0.148542 0)
(0.0687798 0.169241 0)
(0.101611 0.170431 0)
(0.133268 0.158135 0)
(0.161204 0.137715 0)
(0.18369 0.113343 0)
(0.199686 0.0881015 0)
(0.209564 0.06352 0)
(0.212463 0.0403424 0)
(0.210195 0.0184434 0)
(0.199953 -0.00255203 0)
(0.18536 -0.0231162 0)
(0.160619 -0.0437249 0)
(0.134088 -0.0674539 0)
(0.0926662 -0.101403 0)
(0.0697471 -0.179802 0)
(-0.00443982 -0.369963 0)
(0.0521253 -0.491595 0)
(-0.0139716 0.0185765 0)
(-0.00750999 0.0881895 0)
(0.019143 0.124121 0)
(0.0562992 0.137184 0)
(0.0973728 0.136741 0)
(0.137676 0.127547 0)
(0.173854 0.112897 0)
(0.203628 0.0951393 0)
(0.225466 0.0767 0)
(0.240509 0.058593 0)
(0.24652 0.041773 0)
(0.247426 0.026132 0)
(0.238116 0.011827 0)
(0.226335 -0.00192086 0)
(0.201415 -0.0159221 0)
(0.17753 -0.0348426 0)
(0.133295 -0.0676234 0)
(0.107709 -0.1459 0)
(0.0374139 -0.326108 0)
(0.0923437 -0.455868 0)
(-0.105991 0.0824597 0)
(-0.0777332 0.0690274 0)
(-0.048573 0.0733453 0)
(0.00371634 0.0778255 0)
(0.0571581 0.0781351 0)
(0.109813 0.0738612 0)
(0.156909 0.0665294 0)
(0.199201 0.0571368 0)
(0.23126 0.0474818 0)
(0.259368 0.0378496 0)
(0.275079 0.0292122 0)
(0.29023 0.0212534 0)
(0.29061 0.0145238 0)
(0.294761 0.00815979 0)
(0.278535 0.00121047 0)
(0.271398 -0.00992857 0)
(0.232166 -0.0354953 0)
(0.218067 -0.0953881 0)
(0.150196 -0.229723 0)
(0.17067 -0.341464 0)
(0.129985 0.103755 0)
(0.158353 0.0752575 0)
(0.212219 0.0532619 0)
(0.270726 0.0416502 0)
(0.32328 0.035931 0)
(0.375682 0.0319578 0)
(0.420232 0.0289206 0)
(0.465503 0.0255827 0)
(0.498559 0.0229056 0)
(0.533778 0.0197153 0)
(0.5532 0.0175563 0)
(0.579009 0.0146219 0)
(0.585161 0.0131814 0)
(0.603528 0.0103656 0)
(0.594988 0.00940561 0)
(0.603535 0.00501943 0)
(0.567772 0.000104806 0)
(0.54764 -0.018307 0)
(0.435738 -0.0504148 0)
(0.336776 -0.101391 0)
)
;

boundaryField
{
    movingWall
    {
        type            fixedValue;
        value           uniform (1 0 0);
    }
    fixedWalls
    {
        type            noSlip;
    }
    frontAndBack
    {
        type            empty;
    }
}


// ************************************************************************* //
