/*--------------------------------*- C++ -*----------------------------------*\
| =========                 |                                                 |
| \\      /  F ield         | OpenFOAM: The Open Source CFD Toolbox           |
|  \\    /   O peration     | Version:  2212                                  |
|   \\  /    A nd           | Website:  www.openfoam.com                      |
|    \\/     M anipulation  |                                                 |
\*---------------------------------------------------------------------------*/
FoamFile
{
    version     2.0;
    format      ascii;
    arch        "LSB;label=32;scalar=64";
    class       surfaceScalarField;
    location    "10.6";
    object      phi;
}
// * * * * * * * * * * * * * * * * * * * * * * * * * * * * * * * * * * * * * //

dimensions      [0 3 -1 0 0 0 0];

oriented        oriented;

internalField   nonuniform List<scalar> 
760
(
1.56076e-07
-1.56133e-07
2.93624e-07
-1.37548e-07
3.09989e-07
-1.63646e-08
1.8368e-07
1.26309e-07
-1.20309e-07
3.03988e-07
-6.65928e-07
5.45619e-07
-1.48527e-06
8.19342e-07
-2.49086e-06
1.00559e-06
-3.48034e-06
9.89481e-07
-4.22033e-06
7.39994e-07
-4.54396e-06
3.23628e-07
-4.35364e-06
-1.9032e-07
-3.59375e-06
-7.59887e-07
-2.37899e-06
-1.21477e-06
-9.40023e-07
-1.43896e-06
3.47744e-07
-1.28777e-06
1.08993e-06
-7.42189e-07
1.03308e-06
5.68547e-08
4.60995e-07
5.72081e-07
4.60994e-07
1.25044e-07
-2.81177e-07
7.4604e-08
-8.7108e-08
-2.9703e-07
3.5527e-07
-1.07891e-06
9.08191e-07
-2.31594e-06
1.54102e-06
-3.92741e-06
2.15709e-06
-5.66231e-06
2.55424e-06
-7.20704e-06
2.55031e-06
-8.33694e-06
2.11938e-06
-8.94228e-06
1.34534e-06
-8.9762e-06
3.57551e-07
-8.4162e-06
-7.50322e-07
-7.29363e-06
-1.88246e-06
-5.64203e-06
-2.86636e-06
-3.60582e-06
-3.47518e-06
-1.49024e-06
-3.40335e-06
1.78723e-07
-2.41115e-06
8.58985e-07
-6.23405e-07
5.25709e-07
9.0536e-07
9.86702e-07
-1.27603e-07
-1.53574e-07
-6.33936e-07
4.19226e-07
-1.62494e-06
1.34628e-06
-3.1415e-06
2.42474e-06
-5.05756e-06
3.45708e-06
-7.07341e-06
4.17294e-06
-8.8735e-06
4.35433e-06
-1.02778e-05
3.95457e-06
-1.12345e-05
3.07616e-06
-1.17361e-05
1.84689e-06
-1.17301e-05
3.51595e-07
-1.12712e-05
-1.20924e-06
-1.03385e-05
-2.81516e-06
-8.87786e-06
-4.32701e-06
-6.86959e-06
-5.48345e-06
-4.40323e-06
-5.86972e-06
-1.87875e-06
-4.93563e-06
-8.64012e-08
-2.41575e-06
2.94691e-07
5.24269e-07
1.28139e-06
-5.00534e-07
3.4696e-07
-1.56001e-06
1.4787e-06
-3.11954e-06
2.9058e-06
-5.08145e-06
4.38666e-06
-7.18536e-06
5.56098e-06
-9.12336e-06
6.11095e-06
-1.06932e-05
5.92418e-06
-1.18524e-05
5.11378e-06
-1.26291e-05
3.85278e-06
-1.30577e-05
2.27554e-06
-1.31227e-05
4.16642e-07
-1.28832e-05
-1.44875e-06
-1.23004e-05
-3.39798e-06
-1.12725e-05
-5.35492e-06
-9.6688e-06
-7.08715e-06
-7.36467e-06
-8.17385e-06
-4.39878e-06
-7.90152e-06
-1.37807e-06
-5.43646e-06
1.20735e-07
-9.74534e-07
1.40213e-06
-8.61962e-07
1.20892e-06
-2.36176e-06
2.9785e-06
-4.23288e-06
4.77692e-06
-6.28027e-06
6.43405e-06
-8.22271e-06
7.50342e-06
-9.83747e-06
7.72571e-06
-1.10479e-05
7.1346e-06
-1.18805e-05
5.9464e-06
-1.23971e-05
4.36939e-06
-1.26703e-05
2.54874e-06
-1.27909e-05
5.37228e-07
-1.27453e-05
-1.49439e-06
-1.25246e-05
-3.61865e-06
-1.205e-05
-5.82951e-06
-1.11353e-05
-8.00186e-06
-9.49254e-06
-9.81661e-06
-6.82226e-06
-1.05718e-05
-3.22302e-06
-9.03571e-06
-2.61169e-07
-3.93638e-06
1.14096e-06
-1.08713e-06
2.29605e-06
-2.7847e-06
4.67607e-06
-4.67854e-06
6.67077e-06
-6.53666e-06
8.29217e-06
-8.13468e-06
9.10145e-06
-9.34162e-06
8.93265e-06
-1.01535e-05
7.94645e-06
-1.06353e-05
6.42828e-06
-1.08774e-05
4.61149e-06
-1.09794e-05
2.65072e-06
-1.10626e-05
6.20436e-07
-1.11132e-05
-1.44385e-06
-1.11473e-05
-3.58453e-06
-1.11361e-05
-5.84067e-06
-1.09264e-05
-8.21159e-06
-1.01912e-05
-1.05518e-05
-8.43609e-06
-1.23269e-05
-5.24507e-06
-1.22267e-05
-1.15867e-06
-8.02278e-06
-1.77145e-08
-1.11125e-06
3.40729e-06
-2.75939e-06
6.32422e-06
-4.45742e-06
8.36879e-06
-5.99351e-06
9.82825e-06
-7.20755e-06
1.03155e-05
-8.03724e-06
9.76233e-06
-8.52035e-06
8.42956e-06
-8.74386e-06
6.65179e-06
-8.81124e-06
4.67886e-06
-8.81916e-06
2.65865e-06
-8.84971e-06
6.50989e-07
-8.92106e-06
-1.37251e-06
-9.05316e-06
-3.45243e-06
-9.25768e-06
-5.63615e-06
-9.47866e-06
-7.99061e-06
-9.48534e-06
-1.05452e-05
-8.75904e-06
-1.30532e-05
-6.54126e-06
-1.44445e-05
-2.42497e-06
-1.21391e-05
-2.44268e-06
-9.36628e-07
4.34392e-06
-2.349e-06
7.73659e-06
-3.73697e-06
9.75677e-06
-4.91704e-06
1.10083e-05
-5.78827e-06
1.11867e-05
-6.33387e-06
1.03079e-05
-6.61105e-06
8.70674e-06
-6.7108e-06
6.75154e-06
-6.72894e-06
4.697e-06
-6.73817e-06
2.66787e-06
-6.77379e-06
6.86616e-07
-6.8526e-06
-1.2937e-06
-6.99551e-06
-3.30952e-06
-7.23317e-06
-5.39849e-06
-7.58319e-06
-7.64059e-06
-7.9556e-06
-1.01728e-05
-7.94138e-06
-1.30674e-05
-6.72256e-06
-1.56633e-05
-3.58985e-06
-1.52718e-05
-6.03253e-06
-6.26061e-07
4.96998e-06
-1.68975e-06
8.80028e-06
-2.72401e-06
1.0791e-05
-3.56422e-06
1.18485e-05
-4.15489e-06
1.17774e-05
-4.50622e-06
1.06593e-05
-4.67713e-06
8.87765e-06
-4.74595e-06
6.82037e-06
-4.78478e-06
4.73584e-06
-4.83681e-06
2.7199e-06
-4.91185e-06
7.61658e-07
-5.01606e-06
-1.18949e-06
-5.15918e-06
-3.1664e-06
-5.36974e-06
-5.18793e-06
-5.7029e-06
-7.30742e-06
-6.17288e-06
-9.70277e-06
-6.563e-06
-1.26773e-05
-6.13292e-06
-1.60934e-05
-3.92709e-06
-1.74776e-05
-9.95962e-06
-2.33271e-07
5.20325e-06
-8.95025e-07
9.46203e-06
-1.56759e-06
1.14636e-05
-2.09813e-06
1.23791e-05
-2.45903e-06
1.21383e-05
-2.67457e-06
1.08748e-05
-2.79296e-06
8.99605e-06
-2.86741e-06
6.89481e-06
-2.94234e-06
4.81077e-06
-3.03958e-06
2.81714e-06
-3.16182e-06
8.83897e-07
-3.30854e-06
-1.04277e-06
-3.47975e-06
-2.99519e-06
-3.6875e-06
-4.98018e-06
-3.98212e-06
-7.01281e-06
-4.44607e-06
-9.23882e-06
-5.02803e-06
-1.20953e-05
-5.12735e-06
-1.59941e-05
-3.56075e-06
-1.90442e-05
-1.35204e-05
1.63763e-07
5.03949e-06
-7.04583e-08
9.69625e-06
-4.03933e-07
1.17971e-05
-6.5547e-07
1.26306e-05
-8.11006e-07
1.22938e-05
-9.01681e-07
1.09655e-05
-9.66853e-07
9.06122e-06
-1.03837e-06
6.96633e-06
-1.13277e-06
4.90517e-06
-1.25781e-06
2.94218e-06
-1.41606e-06
1.04215e-06
-1.60966e-06
-8.49176e-07
-1.83701e-06
-2.76783e-06
-2.09573e-06
-4.72146e-06
-2.41298e-06
-6.69555e-06
-2.88013e-06
-8.77168e-06
-3.56274e-06
-1.14127e-05
-4.02715e-06
-1.55297e-05
-3.02687e-06
-2.00445e-05
-1.65472e-05
5.02483e-07
4.53701e-06
7.00722e-07
9.49801e-06
7.44122e-07
1.17537e-05
7.79873e-07
1.25949e-05
8.24835e-07
1.22489e-05
8.53708e-07
1.09366e-05
8.46858e-07
9.06807e-06
7.96103e-07
7.01708e-06
7.02237e-07
4.99904e-06
5.66948e-07
3.07747e-06
3.85e-07
1.2241e-06
1.50202e-07
-6.14377e-07
-1.38983e-07
-2.47865e-06
-4.89194e-07
-4.37125e-06
-9.03936e-07
-6.28081e-06
-1.42656e-06
-8.24906e-06
-2.20456e-06
-1.06347e-05
-2.95402e-06
-1.47802e-05
-2.46097e-06
-2.05375e-05
-1.90082e-05
7.59789e-07
3.77722e-06
1.35958e-06
8.89822e-06
1.75408e-06
1.13592e-05
2.08515e-06
1.22638e-05
2.3597e-06
1.19743e-05
2.5476e-06
1.07487e-05
2.64081e-06
8.97487e-06
2.65001e-06
7.00788e-06
2.58916e-06
5.05989e-06
2.46457e-06
3.20206e-06
2.26857e-06
1.42009e-06
1.98708e-06
-3.32888e-07
1.62079e-06
-2.11235e-06
1.1648e-06
-3.91526e-06
6.14911e-07
-5.73092e-06
-7.99547e-08
-7.55419e-06
-9.53702e-07
-9.76092e-06
-1.91684e-06
-1.38171e-05
-1.92415e-06
-2.05302e-05
-2.09324e-05
8.75549e-07
2.90167e-06
1.81905e-06
7.95472e-06
2.56412e-06
1.06141e-05
3.20821e-06
1.16197e-05
3.75882e-06
1.14237e-05
4.17274e-06
1.03348e-05
4.43417e-06
8.71343e-06
4.55707e-06
6.88499e-06
4.5642e-06
5.05276e-06
4.47053e-06
3.29573e-06
4.2738e-06
1.61682e-06
3.94135e-06
-4.3274e-10
3.49399e-06
-1.66499e-06
2.90609e-06
-3.32736e-06
2.17896e-06
-5.00379e-06
1.3318e-06
-6.70704e-06
2.74327e-07
-8.70344e-06
-9.53157e-07
-1.25896e-05
-1.42489e-06
-2.00585e-05
-2.23572e-05
8.1143e-07
2.09024e-06
1.96503e-06
6.80112e-06
3.01269e-06
9.56643e-06
3.99076e-06
1.06416e-05
4.87235e-06
1.05421e-05
5.59146e-06
9.61567e-06
6.10901e-06
8.19589e-06
6.42792e-06
6.56608e-06
6.56889e-06
4.91179e-06
6.54971e-06
3.31492e-06
6.36847e-06
1.79805e-06
6.0225e-06
3.45546e-07
5.47869e-06
-1.12118e-06
4.7446e-06
-2.59327e-06
3.81243e-06
-4.07162e-06
2.71125e-06
-5.60585e-06
1.40171e-06
-7.39391e-06
-1.48929e-07
-1.1039e-05
-9.0904e-07
-1.92984e-05
-2.32663e-05
5.81451e-07
1.50879e-06
1.77027e-06
5.61231e-06
3.11544e-06
8.22126e-06
4.47314e-06
9.28393e-06
5.74588e-06
9.26938e-06
6.83506e-06
8.52649e-06
7.67525e-06
7.35569e-06
8.25376e-06
5.98757e-06
8.58282e-06
4.58273e-06
8.67897e-06
3.21876e-06
8.54883e-06
1.9282e-06
8.18946e-06
7.04913e-07
7.55673e-06
-4.88449e-07
6.6681e-06
-1.70464e-06
5.51096e-06
-2.91449e-06
4.12639e-06
-4.22127e-06
2.58848e-06
-5.85601e-06
9.6907e-07
-9.41955e-06
-1.38925e-07
-1.81904e-05
-2.34052e-05
1.54331e-07
1.35446e-06
1.04868e-06
4.71795e-06
2.53351e-06
6.73643e-06
4.26361e-06
7.55382e-06
5.99362e-06
7.53937e-06
7.53576e-06
6.98435e-06
8.78733e-06
6.10412e-06
9.71849e-06
5.05641e-06
1.03242e-05
3.97698e-06
1.06159e-05
2.92712e-06
1.05993e-05
1.94479e-06
1.028e-05
1.02425e-06
9.61148e-06
1.80035e-07
8.61652e-06
-7.09686e-07
7.28481e-06
-1.58277e-06
5.66858e-06
-2.60505e-06
3.92909e-06
-4.11652e-06
2.25069e-06
-7.74116e-06
6.56925e-07
-1.65966e-05
-2.27483e-05
-5.1915e-07
1.87361e-06
2.03724e-07
3.99508e-06
1.76789e-06
5.17226e-06
3.84147e-06
5.48024e-06
6.00722e-06
5.37363e-06
7.97807e-06
5.0135e-06
9.61741e-06
4.46478e-06
1.08836e-05
3.79021e-06
1.17591e-05
3.10148e-06
1.226e-05
2.42626e-06
1.23896e-05
1.81517e-06
1.21677e-05
1.24617e-06
1.16185e-05
7.29225e-07
1.07122e-05
1.96571e-07
9.45367e-06
-3.24217e-07
7.91664e-06
-1.06802e-06
6.28705e-06
-2.48692e-06
4.46681e-06
-5.92091e-06
2.05976e-06
-1.41896e-05
-2.06885e-05
-4.18157e-06
6.05518e-06
-3.64416e-06
3.45766e-06
-1.24381e-06
2.77191e-06
1.56266e-06
2.67377e-06
4.31125e-06
2.62504e-06
6.85487e-06
2.46988e-06
9.0798e-06
2.23985e-06
1.09255e-05
1.94448e-06
1.23734e-05
1.65357e-06
1.34504e-05
1.34927e-06
1.41735e-05
1.09209e-06
1.45874e-05
8.32247e-07
1.46798e-05
6.36893e-07
1.44594e-05
4.16897e-07
1.39226e-05
2.12655e-07
1.3085e-05
-2.30484e-07
1.19347e-05
-1.33659e-06
1.01167e-05
-4.10291e-06
5.63959e-06
-9.71247e-06
-1.50489e-05
6.05518e-06
9.51285e-06
1.22848e-05
1.49585e-05
1.75836e-05
2.00534e-05
2.22933e-05
2.42378e-05
2.58914e-05
2.72406e-05
2.83327e-05
2.9165e-05
2.98019e-05
3.02187e-05
3.04314e-05
3.02009e-05
2.88643e-05
2.47614e-05
1.50489e-05
)
;

boundaryField
{
    movingWall
    {
        type            calculated;
        value           uniform 0;
    }
    fixedWalls
    {
        type            calculated;
        value           uniform 0;
    }
    frontAndBack
    {
        type            empty;
        value           nonuniform List<scalar> 0();
    }
}


// ************************************************************************* //
