/*--------------------------------*- C++ -*----------------------------------*\
| =========                 |                                                 |
| \\      /  F ield         | OpenFOAM: The Open Source CFD Toolbox           |
|  \\    /   O peration     | Version:  2212                                  |
|   \\  /    A nd           | Website:  www.openfoam.com                      |
|    \\/     M anipulation  |                                                 |
\*---------------------------------------------------------------------------*/
FoamFile
{
    version     2.0;
    format      ascii;
    arch        "LSB;label=32;scalar=64";
    class       volVectorField;
    location    "10.6";
    object      U;
}
// * * * * * * * * * * * * * * * * * * * * * * * * * * * * * * * * * * * * * //

dimensions      [0 1 -1 0 0 0 0];

internalField   nonuniform List<vector> 
400
(
(0.00168172 -0.00168386 0)
(0.00483859 -0.0018923 0)
(0.00659112 -0.00120075 0)
(0.00567481 -0.000575136 0)
(0.0015722 0.000183979 0)
(-0.0068292 0.00173939 0)
(-0.0206084 0.0047864 0)
(-0.0395416 0.00873617 0)
(-0.060812 0.0112928 0)
(-0.0791387 0.0105126 0)
(-0.089814 0.00677451 0)
(-0.0904644 0.0016689 0)
(-0.0802268 -0.00361663 0)
(-0.0599942 -0.00827512 0)
(-0.0335208 -0.0108473 0)
(-0.00529232 -0.00979535 0)
(0.0167243 -0.00477301 0)
(0.0244711 0.00277698 0)
(0.0161789 0.00647235 0)
(0.00431658 0.00471719 0)
(0.00172048 -0.00506536 0)
(0.00316267 -0.00403258 0)
(-0.000417052 0.000587715 0)
(-0.0113299 0.00644173 0)
(-0.0314263 0.0140503 0)
(-0.0611507 0.0237744 0)
(-0.0968483 0.0330624 0)
(-0.131462 0.0370935 0)
(-0.158976 0.033518 0)
(-0.176107 0.0234016 0)
(-0.181454 0.00910918 0)
(-0.175083 -0.0069905 0)
(-0.157564 -0.023175 0)
(-0.129653 -0.0369151 0)
(-0.0936156 -0.0445666 0)
(-0.0521946 -0.0418395 0)
(-0.0113997 -0.0263344 0)
(0.0168902 -0.00127874 0)
(0.0178725 0.0162243 0)
(0.00554229 0.0148202 0)
(-0.00023958 -0.00578064 0)
(-0.00538119 0.000801571 0)
(-0.0196097 0.0142995 0)
(-0.044505 0.0312368 0)
(-0.0803433 0.0494471 0)
(-0.122208 0.0643227 0)
(-0.162355 0.0705488 0)
(-0.195279 0.0660306 0)
(-0.218872 0.0521922 0)
(-0.232541 0.0315342 0)
(-0.236297 0.00641595 0)
(-0.230811 -0.0211146 0)
(-0.216396 -0.0488751 0)
(-0.19255 -0.0732295 0)
(-0.159011 -0.0890294 0)
(-0.115745 -0.0892319 0)
(-0.0645642 -0.06703 0)
(-0.0138211 -0.0226643 0)
(0.00948169 0.0179193 0)
(0.00415547 0.0235806 0)
(-0.00347203 0.000453032 0)
(-0.0175154 0.0172407 0)
(-0.0435179 0.0415023 0)
(-0.079686 0.0681978 0)
(-0.122965 0.0911651 0)
(-0.165861 0.103853 0)
(-0.201934 0.102908 0)
(-0.229259 0.0896748 0)
(-0.2481 0.0673281 0)
(-0.259055 0.0385803 0)
(-0.262962 0.0053167 0)
(-0.260629 -0.0311192 0)
(-0.251996 -0.0684586 0)
(-0.236016 -0.103748 0)
(-0.210703 -0.131496 0)
(-0.173354 -0.142896 0)
(-0.121407 -0.125768 0)
(-0.0568459 -0.0708538 0)
(-0.000986829 0.00356713 0)
(0.0047423 0.0282414 0)
(-0.00666309 0.0147831 0)
(-0.0287316 0.0441129 0)
(-0.0632942 0.0770995 0)
(-0.104469 0.108928 0)
(-0.147292 0.131219 0)
(-0.184595 0.138206 0)
(-0.212936 0.129512 0)
(-0.232721 0.108753 0)
(-0.24524 0.0798013 0)
(-0.252216 0.0454489 0)
(-0.255336 0.00723965 0)
(-0.255517 -0.0340004 0)
(-0.252537 -0.0770879 0)
(-0.245854 -0.120693 0)
(-0.232657 -0.160831 0)
(-0.208332 -0.189041 0)
(-0.166829 -0.189989 0)
(-0.103454 -0.142884 0)
(-0.0221828 -0.0388536 0)
(0.00738218 0.0271022 0)
(-0.00851158 0.0348753 0)
(-0.0351805 0.0766445 0)
(-0.0730998 0.114963 0)
(-0.113276 0.147716 0)
(-0.150543 0.16605 0)
(-0.179409 0.165987 0)
(-0.198936 0.149775 0)
(-0.210684 0.122514 0)
(-0.216635 0.088551 0)
(-0.219267 0.0508728 0)
(-0.220537 0.0109548 0)
(-0.221437 -0.0307606 0)
(-0.222169 -0.074726 0)
(-0.222841 -0.121299 0)
(-0.221267 -0.169246 0)
(-0.212363 -0.213079 0)
(-0.188042 -0.238606 0)
(-0.139698 -0.218555 0)
(-0.0628535 -0.118948 0)
(0.00584955 0.0142041 0)
(-0.00829395 0.0570102 0)
(-0.0353465 0.110021 0)
(-0.0718463 0.150512 0)
(-0.107092 0.181208 0)
(-0.136731 0.193903 0)
(-0.15714 0.186507 0)
(-0.169053 0.163342 0)
(-0.174593 0.130556 0)
(-0.176168 0.0929085 0)
(-0.176269 0.0534128 0)
(-0.176383 0.0133141 0)
(-0.177183 -0.0273136 0)
(-0.179215 -0.0695835 0)
(-0.183022 -0.114738 0)
(-0.187969 -0.163872 0)
(-0.190437 -0.215841 0)
(-0.182548 -0.261692 0)
(-0.154296 -0.275209 0)
(-0.099412 -0.205929 0)
(-0.00890854 -0.014625 0)
(-0.00613682 0.0776092 0)
(-0.0297981 0.140577 0)
(-0.0614384 0.181253 0)
(-0.0899139 0.208373 0)
(-0.111927 0.214963 0)
(-0.125467 0.200636 0)
(-0.132159 0.171403 0)
(-0.134314 0.134238 0)
(-0.134378 0.0941208 0)
(-0.134279 0.0537543 0)
(-0.134687 0.0138633 0)
(-0.13578 -0.0258923 0)
(-0.138011 -0.0664911 0)
(-0.142074 -0.109111 0)
(-0.148585 -0.155701 0)
(-0.156248 -0.208616 0)
(-0.159102 -0.265941 0)
(-0.146771 -0.308175 0)
(-0.11227 -0.277244 0)
(-0.0309699 -0.0753454 0)
(-0.0027309 0.0936318 0)
(-0.0204239 0.165673 0)
(-0.0451641 0.205649 0)
(-0.0663639 0.228645 0)
(-0.0816361 0.229608 0)
(-0.0901295 0.209621 0)
(-0.0937641 0.175868 0)
(-0.0946783 0.135829 0)
(-0.0949577 0.0944805 0)
(-0.0957546 0.0540359 0)
(-0.0971052 0.0145942 0)
(-0.0989152 -0.0245887 0)
(-0.101351 -0.0642423 0)
(-0.104917 -0.105016 0)
(-0.110762 -0.1485 0)
(-0.119621 -0.19862 0)
(-0.128372 -0.259848 0)
(-0.126542 -0.323509 0)
(-0.107494 -0.334812 0)
(-0.037355 -0.163464 0)
(0.00121933 0.102781 0)
(-0.00894635 0.183518 0)
(-0.0256527 0.223208 0)
(-0.0396551 0.242832 0)
(-0.0491371 0.239599 0)
(-0.0540119 0.215624 0)
(-0.0559832 0.178868 0)
(-0.0566976 0.137169 0)
(-0.0576598 0.0954126 0)
(-0.0594028 0.0552761 0)
(-0.0616962 0.0163106 0)
(-0.0643968 -0.0224951 0)
(-0.0674955 -0.0617469 0)
(-0.0711704 -0.101644 0)
(-0.0763536 -0.142852 0)
(-0.0846148 -0.188996 0)
(-0.0960811 -0.248416 0)
(-0.100663 -0.324377 0)
(-0.0951823 -0.37228 0)
(-0.0309263 -0.242619 0)
(0.00511917 0.103948 0)
(0.00295744 0.193121 0)
(-0.00539174 0.233705 0)
(-0.0125102 0.250867 0)
(-0.0169023 0.244783 0)
(-0.0187902 0.218566 0)
(-0.0194792 0.180504 0)
(-0.0200083 0.138427 0)
(-0.0213071 0.0969679 0)
(-0.0235434 0.057427 0)
(-0.0264325 0.0190828 0)
(-0.0299162 -0.0191697 0)
(-0.0340107 -0.0579851 0)
(-0.0386545 -0.097414 0)
(-0.0443929 -0.137373 0)
(-0.0524526 -0.180245 0)
(-0.0657688 -0.235718 0)
(-0.0742265 -0.318156 0)
(-0.0812033 -0.396786 0)
(-0.0229435 -0.307181 0)
(0.00845908 0.0974729 0)
(0.014223 0.194114 0)
(0.014106 0.237228 0)
(0.0137115 0.253649 0)
(0.0143345 0.24657 0)
(0.0155316 0.219862 0)
(0.0163914 0.181813 0)
(0.0164452 0.140097 0)
(0.0153075 0.0991557 0)
(0.0130305 0.0602272 0)
(0.00986268 0.0226272 0)
(0.0057543 -0.0147536 0)
(0.000562283 -0.0526997 0)
(-0.0055637 -0.0913069 0)
(-0.013032 -0.130203 0)
(-0.0219791 -0.170386 0)
(-0.0377198 -0.220763 0)
(-0.0487299 -0.304518 0)
(-0.0679047 -0.408529 0)
(-0.0144592 -0.360063 0)
(0.010331 0.0844922 0)
(0.0234228 0.186518 0)
(0.0310877 0.233352 0)
(0.0370184 0.250194 0)
(0.0426813 0.243355 0)
(0.0476371 0.21757 0)
(0.0510754 0.180807 0)
(0.052752 0.1404 0)
(0.0526213 0.100636 0)
(0.0508927 0.0628248 0)
(0.0477834 0.0264578 0)
(0.0431753 -0.0095215 0)
(0.0369011 -0.0460039 0)
(0.0290849 -0.0831439 0)
(0.0189285 -0.120573 0)
(0.00760162 -0.158518 0)
(-0.0118143 -0.204476 0)
(-0.0242364 -0.28652 0)
(-0.0558427 -0.411035 0)
(-0.00613714 -0.40191 0)
(0.00987974 0.0672387 0)
(0.029035 0.170707 0)
(0.0443635 0.222259 0)
(0.0569083 0.241358 0)
(0.0682043 0.236432 0)
(0.0778938 0.21307 0)
(0.0851174 0.178777 0)
(0.0895743 0.140435 0)
(0.091341 0.102272 0)
(0.0907173 0.0658329 0)
(0.0880326 0.0309803 0)
(0.0829834 -0.00330284 0)
(0.075468 -0.03755 0)
(0.0657744 -0.0723361 0)
(0.0525204 -0.107465 0)
(0.0375846 -0.142817 0)
(0.0131397 -0.184303 0)
(8.61627e-05 -0.26328 0)
(-0.0447946 -0.406735 0)
(0.00276654 -0.436286 0)
(0.00693099 0.0493982 0)
(0.0293702 0.148981 0)
(0.0511229 0.203666 0)
(0.0700053 0.224589 0)
(0.0874851 0.221733 0)
(0.103183 0.201575 0)
(0.115857 0.170979 0)
(0.124825 0.136087 0)
(0.13 0.100887 0)
(0.131623 0.0670558 0)
(0.12996 0.0348442 0)
(0.125036 0.00342828 0)
(0.116404 -0.0274724 0)
(0.104669 -0.0587153 0)
(0.0875723 -0.0903425 0)
(0.0683785 -0.122964 0)
(0.0383093 -0.160884 0)
(0.0238676 -0.23718 0)
(-0.0344359 -0.39898 0)
(0.0134765 -0.464441 0)
(0.00238753 0.0346259 0)
(0.0236457 0.123908 0)
(0.0509686 0.179968 0)
(0.0767061 0.202972 0)
(0.101377 0.202663 0)
(0.124265 0.186262 0)
(0.143724 0.160204 0)
(0.158537 0.129771 0)
(0.168286 0.098576 0)
(0.173179 0.0683069 0)
(0.173155 0.0395613 0)
(0.168927 0.0119338 0)
(0.15909 -0.0149177 0)
(0.145354 -0.0417267 0)
(0.124046 -0.0687729 0)
(0.1005 -0.0975772 0)
(0.0646386 -0.132733 0)
(0.0470155 -0.207473 0)
(-0.0227 -0.387093 0)
(0.0285351 -0.485565 0)
(-0.0034264 0.0286115 0)
(0.0100752 0.101504 0)
(0.0371204 0.148709 0)
(0.0689917 0.169479 0)
(0.101892 0.170702 0)
(0.133619 0.158411 0)
(0.161623 0.137975 0)
(0.184174 0.11357 0)
(0.200227 0.0882796 0)
(0.210155 0.0636347 0)
(0.213082 0.0403804 0)
(0.210828 0.0183994 0)
(0.200562 -0.00268302 0)
(0.185927 -0.0233233 0)
(0.161107 -0.0439921 0)
(0.134482 -0.0677557 0)
(0.092943 -0.101707 0)
(0.0698836 -0.180025 0)
(-0.00436344 -0.370058 0)
(0.0521633 -0.491644 0)
(-0.014013 0.0185154 0)
(-0.00751617 0.0881757 0)
(0.0192237 0.124199 0)
(0.0564633 0.137329 0)
(0.0976243 0.136923 0)
(0.138014 0.127741 0)
(0.174274 0.113083 0)
(0.204126 0.0953032 0)
(0.226026 0.0768284 0)
(0.241124 0.0586769 0)
(0.24716 0.0418015 0)
(0.248077 0.0261048 0)
(0.238735 0.0117384 0)
(0.226916 -0.00205485 0)
(0.201911 -0.0160968 0)
(0.17792 -0.0350338 0)
(0.133566 -0.0678121 0)
(0.107846 -0.146007 0)
(0.0374751 -0.32612 0)
(0.0923686 -0.455871 0)
(-0.10602 0.0824166 0)
(-0.0777607 0.0689897 0)
(-0.0485677 0.0733712 0)
(0.00378408 0.0778929 0)
(0.057304 0.0782279 0)
(0.110041 0.0739642 0)
(0.157215 0.0666287 0)
(0.199582 0.0572234 0)
(0.231697 0.0475464 0)
(0.259853 0.0378886 0)
(0.275581 0.02922 0)
(0.290737 0.0212325 0)
(0.291088 0.0144737 0)
(0.295196 0.00808953 0)
(0.27889 0.00112066 0)
(0.27167 -0.0100168 0)
(0.232355 -0.0355712 0)
(0.218146 -0.0954205 0)
(0.150208 -0.229723 0)
(0.170672 -0.341455 0)
(0.129969 0.103744 0)
(0.158319 0.0752271 0)
(0.212163 0.0532267 0)
(0.270672 0.0416221 0)
(0.323248 0.0359127 0)
(0.375692 0.0319485 0)
(0.42029 0.0289165 0)
(0.465611 0.025581 0)
(0.498709 0.0229029 0)
(0.53396 0.0197104 0)
(0.553399 0.0175474 0)
(0.579209 0.0146094 0)
(0.585346 0.0131644 0)
(0.603684 0.0103453 0)
(0.595103 0.00938287 0)
(0.603602 0.00499923 0)
(0.567792 8.87663e-05 0)
(0.547612 -0.0183162 0)
(0.435689 -0.0504144 0)
(0.336753 -0.101386 0)
)
;

boundaryField
{
    movingWall
    {
        type            fixedValue;
        value           uniform (1 0 0);
    }
    fixedWalls
    {
        type            noSlip;
    }
    frontAndBack
    {
        type            empty;
    }
}


// ************************************************************************* //
