/*--------------------------------*- C++ -*----------------------------------*\
| =========                 |                                                 |
| \\      /  F ield         | OpenFOAM: The Open Source CFD Toolbox           |
|  \\    /   O peration     | Version:  2212                                  |
|   \\  /    A nd           | Website:  www.openfoam.com                      |
|    \\/     M anipulation  |                                                 |
\*---------------------------------------------------------------------------*/
FoamFile
{
    version     2.0;
    format      ascii;
    arch        "LSB;label=32;scalar=64";
    class       volScalarField;
    location    "9";
    object      p;
}
// * * * * * * * * * * * * * * * * * * * * * * * * * * * * * * * * * * * * * //

dimensions      [0 2 -2 0 0 0 0];

internalField   nonuniform List<scalar> 
400
(
5.78042e-07
-0.000150409
-0.000534466
-0.00107163
-0.00173231
-0.00249373
-0.00318481
-0.00359735
-0.00356511
-0.00293386
-0.00154836
0.0006195
0.00324966
0.00551422
0.00653411
0.00592354
0.004003
0.0021507
0.00111172
0.00104264
0.000116476
-5.79322e-05
-0.000376856
-0.000764008
-0.0012439
-0.00188798
-0.00270603
-0.00354327
-0.0040797
-0.00393811
-0.00284616
-0.00082467
0.00168953
0.00396114
0.00512513
0.00474382
0.00310401
0.00137584
0.000594248
0.000685252
0.000536562
0.000265117
-7.71497e-05
-0.000559478
-0.00134713
-0.00258041
-0.0042188
-0.00598329
-0.00740193
-0.00794318
-0.00726354
-0.00546143
-0.00289117
-0.000194179
0.00179233
0.00242854
0.00170983
0.00050322
-0.000394971
-0.00039174
0.00115201
0.000741352
0.000192015
-0.000774633
-0.00245086
-0.00493737
-0.00799439
-0.0111194
-0.0137019
-0.0151754
-0.0152052
-0.0138384
-0.0112923
-0.00802796
-0.00475126
-0.00220879
-0.000869448
-0.000705269
-0.00128786
-0.00191722
0.00158328
0.000973737
-2.27703e-05
-0.00192384
-0.00500613
-0.00917911
-0.0139122
-0.0184776
-0.0222135
-0.0246499
-0.0255255
-0.0247198
-0.0223607
-0.0187411
-0.0143027
-0.00965417
-0.00559088
-0.00294787
-0.00219232
-0.00401695
0.00129324
0.000444998
-0.0011972
-0.00430391
-0.00900401
-0.0148788
-0.0210701
-0.0267118
-0.031187
-0.0341738
-0.0355404
-0.0351846
-0.0331924
-0.0297148
-0.0248961
-0.0189584
-0.0125034
-0.00694703
-0.00439983
-0.00652299
-4.84124e-05
-0.00114753
-0.00349914
-0.00779597
-0.0139308
-0.0211117
-0.0282323
-0.0344028
-0.0391227
-0.0422254
-0.0437129
-0.0436036
-0.0419663
-0.0388731
-0.0343061
-0.0281534
-0.0205362
-0.0127009
-0.00785348
-0.00774687
-0.00245042
-0.00374196
-0.00669796
-0.011912
-0.0190374
-0.0269781
-0.034499
-0.0407727
-0.0454432
-0.0484685
-0.0499308
-0.0499222
-0.048522
-0.045781
-0.041656
-0.0359216
-0.0283218
-0.0193684
-0.0118206
-0.00797946
-0.0055373
-0.00691469
-0.0102626
-0.01602
-0.0236549
-0.0318848
-0.039445
-0.0456051
-0.0501282
-0.0530473
-0.0544759
-0.0545161
-0.0532425
-0.0507166
-0.0469543
-0.0418057
-0.034863
-0.0259441
-0.0167068
-0.00999309
-0.0087331
-0.010085
-0.0135962
-0.0195397
-0.0272824
-0.0354815
-0.0429048
-0.0489007
-0.053299
-0.0561558
-0.0575791
-0.0576503
-0.0564325
-0.0540006
-0.0504421
-0.0457531
-0.0396284
-0.0315197
-0.0223182
-0.0143377
-0.0115032
-0.0127567
-0.0162174
-0.0220513
-0.0296026
-0.0375824
-0.0448184
-0.0506895
-0.0550313
-0.0578815
-0.0593232
-0.0594147
-0.0582061
-0.0557774
-0.052277
-0.0478444
-0.0424249
-0.0353779
-0.0271944
-0.0191765
-0.0135482
-0.0146173
-0.0178539
-0.0233123
-0.0304262
-0.0380563
-0.0451094
-0.0509395
-0.0553172
-0.0582274
-0.0597144
-0.0598168
-0.0585754
-0.0560713
-0.0525056
-0.04813
-0.0432006
-0.0370516
-0.0300282
-0.0224141
-0.0148362
-0.0155665
-0.0183498
-0.0232071
-0.0296888
-0.0368725
-0.0437565
-0.0496302
-0.0541433
-0.0571882
-0.0587566
-0.0588637
-0.0575451
-0.0549045
-0.0511676
-0.0466483
-0.0419597
-0.0362959
-0.0302228
-0.0228931
-0.0154666
-0.0157208
-0.0177754
-0.0217435
-0.0273855
-0.0340259
-0.0407431
-0.0467314
-0.0514822
-0.0547563
-0.0564696
-0.0566107
-0.0551898
-0.0523425
-0.0483376
-0.0435752
-0.038726
-0.0331382
-0.028097
-0.0202772
-0.0155732
-0.015297
-0.0163365
-0.0190855
-0.0236497
-0.0296294
-0.0361653
-0.0423279
-0.0474182
-0.0510289
-0.052969
-0.0531724
-0.0516806
-0.0485825
-0.0442197
-0.0390488
-0.0337787
-0.0280699
-0.0242302
-0.0143842
-0.0152758
-0.0145491
-0.0142597
-0.0154245
-0.0186826
-0.0238912
-0.0302265
-0.0366083
-0.04213
-0.0461923
-0.0484799
-0.048857
-0.0473445
-0.0440137
-0.0392436
-0.0335157
-0.0276399
-0.0216293
-0.0180541
-0.00383369
-0.0146612
-0.0136174
-0.0117062
-0.0110804
-0.0129525
-0.0173782
-0.0235307
-0.0301657
-0.0361872
-0.0408044
-0.043571
-0.044254
-0.0428437
-0.0393709
-0.0341816
-0.0276882
-0.0206827
-0.0132781
-0.00678847
0.0160506
-0.0145826
-0.0126567
-0.00864829
-0.00623473
-0.00691001
-0.0107451
-0.016816
-0.0237368
-0.0302941
-0.0355337
-0.0388975
-0.0400289
-0.0388721
-0.0354438
-0.0298935
-0.0222757
-0.0128746
-0.000691757
0.0166907
0.0570604
-0.0117942
-0.0118305
-0.00572643
-0.00177581
-0.00176575
-0.00540493
-0.0115744
-0.0188128
-0.0258721
-0.031683
-0.0356572
-0.0373566
-0.0366806
-0.0333519
-0.0272225
-0.0175421
-0.00315099
0.0204858
0.0606994
0.129817
-0.0295164
-0.0106297
-0.000609477
0.00307973
0.00244714
-0.0015576
-0.00799905
-0.0155517
-0.0229732
-0.0291697
-0.0335271
-0.035583
-0.0351967
-0.0319524
-0.0252259
-0.0128603
0.00942013
0.0511675
0.122874
0.226073
)
;

boundaryField
{
    movingWall
    {
        type            zeroGradient;
    }
    fixedWalls
    {
        type            zeroGradient;
    }
    frontAndBack
    {
        type            empty;
    }
}


// ************************************************************************* //
