/*--------------------------------*- C++ -*----------------------------------*\
| =========                 |                                                 |
| \\      /  F ield         | OpenFOAM: The Open Source CFD Toolbox           |
|  \\    /   O peration     | Version:  2212                                  |
|   \\  /    A nd           | Website:  www.openfoam.com                      |
|    \\/     M anipulation  |                                                 |
\*---------------------------------------------------------------------------*/
FoamFile
{
    version     2.0;
    format      ascii;
    arch        "LSB;label=32;scalar=64";
    class       surfaceScalarField;
    location    "9";
    object      phi;
}
// * * * * * * * * * * * * * * * * * * * * * * * * * * * * * * * * * * * * * //

dimensions      [0 3 -1 0 0 0 0];

oriented        oriented;

internalField   nonuniform List<scalar> 
760
(
1.56063e-07
-1.56116e-07
2.93593e-07
-1.3753e-07
3.09949e-07
-1.63562e-08
1.83641e-07
1.26309e-07
-1.20338e-07
3.03979e-07
-6.65932e-07
5.45594e-07
-1.48523e-06
8.19297e-07
-2.49076e-06
1.00554e-06
-3.48021e-06
9.89442e-07
-4.22019e-06
7.39983e-07
-4.54384e-06
3.23646e-07
-4.35357e-06
-1.90268e-07
-3.59375e-06
-7.59816e-07
-2.37906e-06
-1.21469e-06
-9.40155e-07
-1.43891e-06
3.47585e-07
-1.28774e-06
1.0898e-06
-7.42217e-07
1.03301e-06
5.67965e-08
4.60971e-07
5.72034e-07
4.6097e-07
1.25019e-07
-2.81135e-07
7.45568e-08
-8.70682e-08
-2.97075e-07
3.55275e-07
-1.07893e-06
9.08159e-07
-2.31589e-06
1.54095e-06
-3.92727e-06
2.15698e-06
-5.66209e-06
2.55411e-06
-7.20675e-06
2.5502e-06
-8.33662e-06
2.11931e-06
-8.94197e-06
1.34533e-06
-8.97592e-06
3.576e-07
-8.41598e-06
-7.50213e-07
-7.29348e-06
-1.88231e-06
-5.64198e-06
-2.8662e-06
-3.60585e-06
-3.47504e-06
-1.49033e-06
-3.40326e-06
1.78603e-07
-2.41115e-06
8.58898e-07
-6.23497e-07
5.25675e-07
9.05257e-07
9.86645e-07
-1.27624e-07
-1.53511e-07
-6.33957e-07
4.19265e-07
-1.62493e-06
1.34624e-06
-3.1414e-06
2.42463e-06
-5.05735e-06
3.45689e-06
-7.07309e-06
4.17272e-06
-8.87309e-06
4.35411e-06
-1.02773e-05
3.95439e-06
-1.1234e-05
3.07605e-06
-1.17356e-05
1.84687e-06
-1.17296e-05
3.51671e-07
-1.12708e-05
-1.20908e-06
-1.03381e-05
-2.81494e-06
-8.87757e-06
-4.32675e-06
-6.86941e-06
-5.48319e-06
-4.40316e-06
-5.86952e-06
-1.87876e-06
-4.93555e-06
-8.6446e-08
-2.41581e-06
2.94673e-07
5.24138e-07
1.28132e-06
-5.00527e-07
3.47016e-07
-1.55997e-06
1.4787e-06
-3.11941e-06
2.90569e-06
-5.08121e-06
4.38643e-06
-7.18499e-06
5.56067e-06
-9.12288e-06
6.11062e-06
-1.06926e-05
5.92388e-06
-1.18518e-05
5.11353e-06
-1.26284e-05
3.85263e-06
-1.3057e-05
2.27549e-06
-1.31221e-05
4.16735e-07
-1.28826e-05
-1.44856e-06
-1.22998e-05
-3.3977e-06
-1.1272e-05
-5.35457e-06
-9.66842e-06
-7.08678e-06
-7.36441e-06
-8.17353e-06
-4.39866e-06
-7.9013e-06
-1.37807e-06
-5.4364e-06
1.20716e-07
-9.74645e-07
1.40203e-06
-8.61922e-07
1.20894e-06
-2.36164e-06
2.97842e-06
-4.23264e-06
4.77669e-06
-6.2799e-06
6.43369e-06
-8.22221e-06
7.50299e-06
-9.83687e-06
7.72527e-06
-1.10472e-05
7.13421e-06
-1.18798e-05
5.94609e-06
-1.23963e-05
4.36918e-06
-1.26695e-05
2.54867e-06
-1.27901e-05
5.3732e-07
-1.27445e-05
-1.49416e-06
-1.25239e-05
-3.61829e-06
-1.20494e-05
-5.82907e-06
-1.11348e-05
-8.00139e-06
-9.49213e-06
-9.81616e-06
-6.822e-06
-1.05714e-05
-3.22292e-06
-9.03548e-06
-2.61184e-07
-3.93638e-06
1.14085e-06
-1.08705e-06
2.29599e-06
-2.78452e-06
4.67588e-06
-4.67823e-06
6.67041e-06
-6.53622e-06
8.29168e-06
-8.13413e-06
9.1009e-06
-9.34096e-06
8.93211e-06
-1.01527e-05
7.94596e-06
-1.06345e-05
6.42787e-06
-1.08765e-05
4.61121e-06
-1.09785e-05
2.6506e-06
-1.10616e-05
6.20509e-07
-1.11122e-05
-1.44358e-06
-1.11464e-05
-3.58409e-06
-1.11354e-05
-5.84011e-06
-1.09258e-05
-8.21099e-06
-1.01907e-05
-1.05513e-05
-8.43571e-06
-1.23264e-05
-5.24484e-06
-1.22264e-05
-1.15864e-06
-8.02258e-06
-1.77922e-08
-1.11115e-06
3.40714e-06
-2.75918e-06
6.32391e-06
-4.45708e-06
8.36831e-06
-5.99305e-06
9.82765e-06
-7.20699e-06
1.03148e-05
-8.03658e-06
9.7617e-06
-8.51959e-06
8.42897e-06
-8.743e-06
6.65128e-06
-8.81027e-06
4.67848e-06
-8.81812e-06
2.65845e-06
-8.84864e-06
6.51032e-07
-8.92002e-06
-1.37221e-06
-9.05221e-06
-3.4519e-06
-9.25686e-06
-5.63546e-06
-9.47799e-06
-7.98987e-06
-9.48481e-06
-1.05445e-05
-8.75862e-06
-1.30526e-05
-6.54096e-06
-1.4444e-05
-2.42485e-06
-1.21387e-05
-2.44264e-06
-9.36535e-07
4.34368e-06
-2.34879e-06
7.73617e-06
-3.73666e-06
9.75617e-06
-4.91662e-06
1.10076e-05
-5.78775e-06
1.1186e-05
-6.33326e-06
1.03072e-05
-6.61033e-06
8.70604e-06
-6.70995e-06
6.75091e-06
-6.72798e-06
4.69651e-06
-6.73711e-06
2.66758e-06
-6.7727e-06
6.86616e-07
-6.85152e-06
-1.29338e-06
-6.99451e-06
-3.30891e-06
-7.23231e-06
-5.39766e-06
-7.5825e-06
-7.63967e-06
-7.95508e-06
-1.01719e-05
-7.94099e-06
-1.30667e-05
-6.72226e-06
-1.56627e-05
-3.58965e-06
-1.52713e-05
-6.03229e-06
-6.25986e-07
4.96966e-06
-1.68958e-06
8.79976e-06
-2.72375e-06
1.07903e-05
-3.56387e-06
1.18477e-05
-4.15446e-06
1.17766e-05
-4.5057e-06
1.06584e-05
-4.6765e-06
8.87685e-06
-4.74521e-06
6.81962e-06
-4.78394e-06
4.73523e-06
-4.83588e-06
2.71952e-06
-4.91088e-06
7.6161e-07
-5.01508e-06
-1.18918e-06
-5.15825e-06
-3.16574e-06
-5.36892e-06
-5.187e-06
-5.70224e-06
-7.30634e-06
-6.17241e-06
-9.70172e-06
-6.56267e-06
-1.26764e-05
-6.13268e-06
-1.60927e-05
-3.92692e-06
-1.7477e-05
-9.95922e-06
-2.33229e-07
5.20289e-06
-8.94916e-07
9.46145e-06
-1.56741e-06
1.14628e-05
-2.0979e-06
1.23782e-05
-2.45873e-06
1.21374e-05
-2.6742e-06
1.08739e-05
-2.79252e-06
8.99517e-06
-2.86688e-06
6.89398e-06
-2.94173e-06
4.81009e-06
-3.03891e-06
2.8167e-06
-3.16111e-06
8.83805e-07
-3.3078e-06
-1.04248e-06
-3.47903e-06
-2.99452e-06
-3.68684e-06
-4.97919e-06
-3.98157e-06
-7.01161e-06
-4.44567e-06
-9.23761e-06
-5.02779e-06
-1.20943e-05
-5.12719e-06
-1.59933e-05
-3.56064e-06
-1.90436e-05
-1.35199e-05
1.63761e-07
5.03913e-06
-7.04278e-08
9.69563e-06
-4.03869e-07
1.17963e-05
-6.55373e-07
1.26297e-05
-8.10874e-07
1.22929e-05
-9.01509e-07
1.09645e-05
-9.66639e-07
9.0603e-06
-1.03812e-06
6.96546e-06
-1.13248e-06
4.90445e-06
-1.25748e-06
2.94171e-06
-1.4157e-06
1.04203e-06
-1.60927e-06
-8.48908e-07
-1.83661e-06
-2.76718e-06
-2.09533e-06
-4.72046e-06
-2.41262e-06
-6.69432e-06
-2.87986e-06
-8.77037e-06
-3.5626e-06
-1.14115e-05
-4.02707e-06
-1.55289e-05
-3.02682e-06
-2.00438e-05
-1.65467e-05
5.02438e-07
4.53669e-06
7.00668e-07
9.49741e-06
7.44066e-07
1.17529e-05
7.79817e-07
1.2594e-05
8.24782e-07
1.22479e-05
8.53658e-07
1.09357e-05
8.46808e-07
9.06715e-06
7.96045e-07
7.01622e-06
7.02173e-07
4.99832e-06
5.66887e-07
3.07699e-06
3.84955e-07
1.22396e-06
1.50188e-07
-6.14141e-07
-1.38958e-07
-2.47803e-06
-4.89122e-07
-4.3703e-06
-9.03834e-07
-6.27961e-06
-1.42647e-06
-8.24773e-06
-2.20453e-06
-1.06335e-05
-2.95404e-06
-1.47794e-05
-2.46097e-06
-2.05369e-05
-1.90077e-05
7.59701e-07
3.77699e-06
1.35944e-06
8.89766e-06
1.7539e-06
1.13584e-05
2.08493e-06
1.22629e-05
2.35945e-06
1.19734e-05
2.54733e-06
1.07478e-05
2.64049e-06
8.97398e-06
2.64965e-06
7.00707e-06
2.58875e-06
5.05922e-06
2.46413e-06
3.20161e-06
2.26814e-06
1.41995e-06
1.98669e-06
-3.32691e-07
1.62046e-06
-2.1118e-06
1.16455e-06
-3.91439e-06
6.14742e-07
-5.7298e-06
-8.00608e-08
-7.55293e-06
-9.53811e-07
-9.75972e-06
-1.91694e-06
-1.38162e-05
-1.9242e-06
-2.05297e-05
-2.09319e-05
8.75435e-07
2.90156e-06
1.81884e-06
7.95426e-06
2.56384e-06
1.06134e-05
3.20786e-06
1.16189e-05
3.7584e-06
1.14229e-05
4.17225e-06
1.03339e-05
4.43362e-06
8.71262e-06
4.55643e-06
6.88426e-06
4.56349e-06
5.05216e-06
4.46977e-06
3.29533e-06
4.27304e-06
1.61668e-06
3.94062e-06
-2.79798e-10
3.49334e-06
-1.66451e-06
2.90555e-06
-3.3266e-06
2.17854e-06
-5.0028e-06
1.3315e-06
-6.70589e-06
2.74108e-07
-8.70233e-06
-9.53333e-07
-1.25888e-05
-1.42497e-06
-2.0058e-05
-2.23568e-05
8.11316e-07
2.09024e-06
1.96478e-06
6.8008e-06
3.01233e-06
9.56588e-06
3.9903e-06
1.06409e-05
4.8718e-06
1.05414e-05
5.59081e-06
9.61492e-06
6.10826e-06
8.19518e-06
6.42707e-06
6.56545e-06
6.56795e-06
4.91128e-06
6.54871e-06
3.31458e-06
6.36745e-06
1.79794e-06
6.02151e-06
3.45669e-07
5.47778e-06
-1.12079e-06
4.74382e-06
-2.59263e-06
3.81179e-06
-4.07078e-06
2.71078e-06
-5.60488e-06
1.4014e-06
-7.39295e-06
-1.49088e-07
-1.10383e-05
-9.09158e-07
-1.92979e-05
-2.3266e-05
5.81365e-07
1.50888e-06
1.77003e-06
5.61213e-06
3.11506e-06
8.22085e-06
4.47263e-06
9.28338e-06
5.74524e-06
9.26876e-06
6.83428e-06
8.52587e-06
7.67436e-06
7.3551e-06
8.25275e-06
5.98706e-06
8.5817e-06
4.58232e-06
8.67779e-06
3.21849e-06
8.54762e-06
1.92811e-06
8.18828e-06
7.05011e-07
7.55562e-06
-4.88135e-07
6.66713e-06
-1.70414e-06
5.51017e-06
-2.91382e-06
4.1258e-06
-4.22051e-06
2.58809e-06
-5.85523e-06
9.68783e-07
-9.419e-06
-1.39056e-07
-1.81901e-05
-2.3405e-05
1.54282e-07
1.35459e-06
1.04849e-06
4.71792e-06
2.53317e-06
6.73618e-06
4.26311e-06
7.55344e-06
5.99296e-06
7.53892e-06
7.53494e-06
6.98389e-06
8.78637e-06
6.10368e-06
9.7174e-06
5.05602e-06
1.0323e-05
3.97668e-06
1.06146e-05
2.92693e-06
1.0598e-05
1.94474e-06
1.02787e-05
1.02433e-06
9.61028e-06
1.80248e-07
8.61545e-06
-7.09304e-07
7.28392e-06
-1.58229e-06
5.66792e-06
-2.60451e-06
3.92867e-06
-4.11598e-06
2.25045e-06
-7.74078e-06
6.56833e-07
-1.65965e-05
-2.27482e-05
-5.1911e-07
1.8737e-06
2.03663e-07
3.99515e-06
1.76767e-06
5.17217e-06
3.84105e-06
5.48005e-06
6.0066e-06
5.37337e-06
7.97727e-06
5.01322e-06
9.61643e-06
4.46451e-06
1.08825e-05
3.78998e-06
1.17579e-05
3.1013e-06
1.22586e-05
2.42615e-06
1.23882e-05
1.81514e-06
1.21664e-05
1.24621e-06
1.16172e-05
7.29367e-07
1.07111e-05
1.96804e-07
9.45279e-06
-3.23954e-07
7.916e-06
-1.06771e-06
6.28665e-06
-2.48663e-06
4.4666e-06
-5.92074e-06
2.05967e-06
-1.41896e-05
-2.06885e-05
-4.18153e-06
6.05523e-06
-3.64412e-06
3.45774e-06
-1.24387e-06
2.77193e-06
1.56244e-06
2.67373e-06
4.31086e-06
2.62496e-06
6.8543e-06
2.46978e-06
9.07907e-06
2.23974e-06
1.09247e-05
1.94439e-06
1.23725e-05
1.6535e-06
1.34494e-05
1.34922e-06
1.41725e-05
1.09208e-06
1.45864e-05
8.32268e-07
1.46788e-05
6.3695e-07
1.44586e-05
4.16975e-07
1.39219e-05
2.12749e-07
1.30846e-05
-2.30355e-07
1.19345e-05
-1.3365e-06
1.01166e-05
-4.10289e-06
5.63955e-06
-9.7125e-06
-1.5049e-05
6.05523e-06
9.51297e-06
1.22849e-05
1.49586e-05
1.75836e-05
2.00534e-05
2.22931e-05
2.42375e-05
2.5891e-05
2.72402e-05
2.83323e-05
2.91646e-05
2.98015e-05
3.02185e-05
3.04312e-05
3.02009e-05
2.88644e-05
2.47615e-05
1.5049e-05
)
;

boundaryField
{
    movingWall
    {
        type            calculated;
        value           uniform 0;
    }
    fixedWalls
    {
        type            calculated;
        value           uniform 0;
    }
    frontAndBack
    {
        type            empty;
        value           nonuniform List<scalar> 0();
    }
}


// ************************************************************************* //
