/*--------------------------------*- C++ -*----------------------------------*\
| =========                 |                                                 |
| \\      /  F ield         | OpenFOAM: The Open Source CFD Toolbox           |
|  \\    /   O peration     | Version:  2212                                  |
|   \\  /    A nd           | Website:  www.openfoam.com                      |
|    \\/     M anipulation  |                                                 |
\*---------------------------------------------------------------------------*/
FoamFile
{
    version     2.0;
    format      ascii;
    arch        "LSB;label=32;scalar=64";
    class       volScalarField;
    location    "9";
    object      T;
}
// * * * * * * * * * * * * * * * * * * * * * * * * * * * * * * * * * * * * * //

dimensions      [0 0 0 1 0 0 0];

internalField   nonuniform List<scalar> 
400
(
0.864003
0.867441
0.874395
0.884605
0.896351
0.906832
0.914085
0.918077
0.920094
0.921415
0.922591
0.923778
0.925019
0.926261
0.927292
0.927755
0.927066
0.924569
0.920563
0.917273
0.86851
0.87267
0.880987
0.892795
0.905082
0.913884
0.918024
0.91945
0.919994
0.920403
0.921107
0.922356
0.924228
0.926604
0.928972
0.930542
0.930106
0.926734
0.921633
0.917914
0.875508
0.881013
0.891215
0.903409
0.912876
0.916902
0.917067
0.915751
0.914019
0.912704
0.912535
0.914019
0.917175
0.921894
0.927294
0.932058
0.933979
0.930829
0.923602
0.919096
0.882337
0.889226
0.900284
0.910215
0.914687
0.913621
0.909671
0.904556
0.899441
0.895658
0.894194
0.895894
0.900552
0.908277
0.918
0.928162
0.935838
0.937099
0.928935
0.921984
0.887617
0.895342
0.905666
0.911634
0.910625
0.904426
0.895654
0.885911
0.876976
0.87046
0.867518
0.869126
0.875028
0.885459
0.899494
0.91563
0.930976
0.940937
0.93872
0.927468
0.891184
0.898974
0.907341
0.908703
0.902298
0.890939
0.877149
0.862932
0.850555
0.841683
0.837476
0.838691
0.845307
0.857468
0.874608
0.89549
0.917675
0.936986
0.946243
0.935574
0.893315
0.90048
0.906233
0.903084
0.891793
0.875714
0.857488
0.83968
0.824798
0.814418
0.809485
0.810367
0.817185
0.830012
0.848674
0.872459
0.899457
0.925936
0.945705
0.947146
0.894405
0.900589
0.903751
0.89674
0.881327
0.861255
0.839519
0.819171
0.802757
0.791653
0.786463
0.787214
0.793927
0.806615
0.825389
0.850263
0.880268
0.912108
0.939522
0.953399
0.894781
0.899875
0.900789
0.890767
0.8722
0.849166
0.825007
0.80306
0.785802
0.774387
0.769108
0.76981
0.77636
0.788625
0.806693
0.831096
0.86226
0.8981
0.931517
0.950894
0.894689
0.898839
0.898216
0.886357
0.865785
0.840804
0.815077
0.792117
0.774313
0.762624
0.757156
0.757708
0.764089
0.776015
0.793279
0.816393
0.846989
0.885178
0.924337
0.949031
0.894278
0.897717
0.896236
0.883557
0.862052
0.836188
0.809816
0.786435
0.768305
0.756278
0.75042
0.750591
0.756637
0.768212
0.784789
0.806417
0.835263
0.873991
0.917632
0.947834
0.893634
0.896654
0.895095
0.882822
0.861649
0.835987
0.809761
0.786377
0.768019
0.755564
0.749152
0.748713
0.754137
0.76509
0.780868
0.800943
0.827324
0.86517
0.912288
0.947188
0.892755
0.895612
0.894498
0.883513
0.863729
0.839298
0.814105
0.79139
0.773252
0.760616
0.753716
0.752538
0.757036
0.766903
0.781423
0.799735
0.823159
0.858696
0.908051
0.947122
0.891583
0.894536
0.894367
0.885618
0.868444
0.846425
0.823238
0.801907
0.784443
0.771854
0.764513
0.762409
0.765617
0.773833
0.786431
0.802424
0.82256
0.854926
0.905318
0.947531
0.890013
0.893234
0.89399
0.887652
0.873723
0.855046
0.834903
0.815991
0.800129
0.788299
0.78096
0.778087
0.779815
0.785901
0.795851
0.808985
0.825632
0.853792
0.903875
0.948425
0.888127
0.891728
0.893656
0.890061
0.880063
0.865638
0.849461
0.833806
0.820255
0.809705
0.802624
0.799074
0.799088
0.8026
0.809311
0.818893
0.831772
0.854896
0.903812
0.949833
0.886281
0.889796
0.892006
0.890307
0.883867
0.873933
0.862374
0.850876
0.840611
0.832294
0.826235
0.822605
0.821289
0.822412
0.82596
0.831877
0.841384
0.860132
0.906654
0.952223
0.884968
0.888922
0.89199
0.891843
0.888523
0.882753
0.875623
0.868168
0.861138
0.855089
0.850227
0.846779
0.844731
0.844203
0.84554
0.848589
0.855649
0.870149
0.912018
0.955241
0.86834
0.885801
0.886353
0.886389
0.884673
0.882127
0.879086
0.876216
0.873553
0.8716
0.870183
0.869582
0.869701
0.870484
0.872492
0.87503
0.881486
0.892697
0.924602
0.960413
0.907413
0.918708
0.924832
0.928589
0.930693
0.932073
0.932872
0.933658
0.934239
0.93505
0.935765
0.93678
0.937715
0.938952
0.940129
0.941742
0.943756
0.947968
0.956276
0.971024
)
;

boundaryField
{
    movingWall
    {
        type            fixedValue;
        value           uniform 1;
    }
    fixedWalls
    {
        type            zeroGradient;
    }
    frontAndBack
    {
        type            empty;
    }
}


// ************************************************************************* //
