/*--------------------------------*- C++ -*----------------------------------*\
| =========                 |                                                 |
| \\      /  F ield         | OpenFOAM: The Open Source CFD Toolbox           |
|  \\    /   O peration     | Version:  2212                                  |
|   \\  /    A nd           | Website:  www.openfoam.com                      |
|    \\/     M anipulation  |                                                 |
\*---------------------------------------------------------------------------*/
FoamFile
{
    version     2.0;
    format      ascii;
    arch        "LSB;label=32;scalar=64";
    class       volVectorField;
    location    "9";
    object      U;
}
// * * * * * * * * * * * * * * * * * * * * * * * * * * * * * * * * * * * * * //

dimensions      [0 1 -1 0 0 0 0];

internalField   nonuniform List<vector> 
400
(
(0.00168159 -0.00168371 0)
(0.00483815 -0.00189213 0)
(0.00659039 -0.00120065 0)
(0.00567398 -0.000575073 0)
(0.00157144 0.000184036 0)
(-0.00682963 0.00173938 0)
(-0.0206081 0.00478616 0)
(-0.0395403 0.00873562 0)
(-0.0608096 0.0112922 0)
(-0.0791358 0.0105122 0)
(-0.0898112 0.00677454 0)
(-0.0904624 0.00166923 0)
(-0.0802261 -0.00361608 0)
(-0.0599949 -0.00827452 0)
(-0.0335229 -0.0108468 0)
(-0.00529517 -0.00979516 0)
(0.0167213 -0.00477341 0)
(0.0244689 0.00277643 0)
(0.016178 0.00647187 0)
(0.00431643 0.00471696 0)
(0.00172021 -0.00506477 0)
(0.0031619 -0.00403195 0)
(-0.000418085 0.000587995 0)
(-0.0113307 0.00644165 0)
(-0.0314262 0.0140497 0)
(-0.0611489 0.0237731 0)
(-0.0968445 0.0330605 0)
(-0.131457 0.0370915 0)
(-0.158969 0.0335167 0)
(-0.176101 0.0234012 0)
(-0.181448 0.00910974 0)
(-0.175078 -0.00698916 0)
(-0.15756 -0.0231731 0)
(-0.129651 -0.036913 0)
(-0.0936151 -0.0445649 0)
(-0.0521957 -0.0418386 0)
(-0.0114018 -0.0263348 0)
(0.0168879 -0.0012802 0)
(0.0178712 0.0162228 0)
(0.00554207 0.0148194 0)
(-0.000239857 -0.00577954 0)
(-0.00538174 0.000802555 0)
(-0.01961 0.0142995 0)
(-0.0445041 0.0312355 0)
(-0.0803404 0.0494445 0)
(-0.122203 0.0643192 0)
(-0.162348 0.0705451 0)
(-0.19527 0.0660276 0)
(-0.218862 0.0521904 0)
(-0.23253 0.0315339 0)
(-0.236287 0.00641713 0)
(-0.230801 -0.0211121 0)
(-0.216388 -0.0488715 0)
(-0.192543 -0.0732255 0)
(-0.159006 -0.0890258 0)
(-0.115742 -0.0892295 0)
(-0.0645635 -0.0670297 0)
(-0.0138223 -0.0226663 0)
(0.00948085 0.0179169 0)
(0.00415544 0.0235793 0)
(-0.00347205 0.000454352 0)
(-0.0175151 0.0172412 0)
(-0.0435165 0.0415009 0)
(-0.0796825 0.0681943 0)
(-0.122959 0.09116 0)
(-0.165852 0.103848 0)
(-0.201923 0.102902 0)
(-0.229247 0.0896708 0)
(-0.248086 0.0673257 0)
(-0.25904 0.0385798 0)
(-0.262948 0.00531837 0)
(-0.260616 -0.0311155 0)
(-0.251983 -0.0684532 0)
(-0.236005 -0.103742 0)
(-0.210694 -0.13149 0)
(-0.173347 -0.142891 0)
(-0.121403 -0.125766 0)
(-0.056845 -0.0708545 0)
(-0.000987536 0.00356439 0)
(0.00474228 0.0282396 0)
(-0.00666281 0.0147839 0)
(-0.0287302 0.0441121 0)
(-0.0632909 0.0770959 0)
(-0.104463 0.108922 0)
(-0.147284 0.131211 0)
(-0.184584 0.138199 0)
(-0.212923 0.129505 0)
(-0.232706 0.108748 0)
(-0.245224 0.079798 0)
(-0.2522 0.045448 0)
(-0.255319 0.0072415 0)
(-0.255501 -0.0339959 0)
(-0.252522 -0.0770812 0)
(-0.245841 -0.120685 0)
(-0.232645 -0.160822 0)
(-0.208323 -0.189033 0)
(-0.166822 -0.189984 0)
(-0.10345 -0.142882 0)
(-0.0221829 -0.0388554 0)
(0.00738171 0.0271001 0)
(-0.00851101 0.0348749 0)
(-0.0351783 0.0766418 0)
(-0.073095 0.114957 0)
(-0.113268 0.147708 0)
(-0.150533 0.166041 0)
(-0.179396 0.165977 0)
(-0.198922 0.149767 0)
(-0.210668 0.122507 0)
(-0.216618 0.0885464 0)
(-0.219249 0.0508711 0)
(-0.220517 0.0109565 0)
(-0.221418 -0.0307555 0)
(-0.222151 -0.074718 0)
(-0.222825 -0.121289 0)
(-0.221254 -0.169235 0)
(-0.212352 -0.213068 0)
(-0.188033 -0.238598 0)
(-0.139692 -0.218549 0)
(-0.0628509 -0.118946 0)
(0.00584868 0.0142025 0)
(-0.00829323 0.0570081 0)
(-0.0353438 0.110016 0)
(-0.0718409 0.150504 0)
(-0.107083 0.181197 0)
(-0.13672 0.193891 0)
(-0.157128 0.186496 0)
(-0.169039 0.163332 0)
(-0.174577 0.130548 0)
(-0.17615 0.0929023 0)
(-0.176248 0.05341 0)
(-0.176361 0.0133156 0)
(-0.177162 -0.0273077 0)
(-0.179195 -0.0695735 0)
(-0.183005 -0.114725 0)
(-0.187954 -0.163859 0)
(-0.190426 -0.215829 0)
(-0.182538 -0.261681 0)
(-0.154289 -0.2752 0)
(-0.099407 -0.205923 0)
(-0.00890839 -0.0146261 0)
(-0.00613615 0.0776053 0)
(-0.0297954 0.14057 0)
(-0.0614332 0.181243 0)
(-0.0899062 0.20836 0)
(-0.111918 0.21495 0)
(-0.125456 0.200623 0)
(-0.132146 0.17139 0)
(-0.134298 0.134227 0)
(-0.134359 0.0941125 0)
(-0.134259 0.0537499 0)
(-0.134665 0.0138641 0)
(-0.135758 -0.0258857 0)
(-0.137991 -0.0664791 0)
(-0.142056 -0.109095 0)
(-0.14857 -0.155683 0)
(-0.156236 -0.2086 0)
(-0.159093 -0.265927 0)
(-0.146764 -0.308164 0)
(-0.112265 -0.277235 0)
(-0.0309681 -0.0753433 0)
(-0.00273045 0.0936262 0)
(-0.0204217 0.165664 0)
(-0.0451597 0.205637 0)
(-0.0663576 0.22863 0)
(-0.0816281 0.229592 0)
(-0.0901199 0.209605 0)
(-0.0937526 0.175853 0)
(-0.0946644 0.135815 0)
(-0.0949414 0.0944699 0)
(-0.0957363 0.0540297 0)
(-0.0970858 0.0145941 0)
(-0.0988955 -0.0245818 0)
(-0.101332 -0.064229 0)
(-0.1049 -0.104998 0)
(-0.110747 -0.148479 0)
(-0.11961 -0.1986 0)
(-0.128364 -0.259831 0)
(-0.126537 -0.323496 0)
(-0.10749 -0.3348 0)
(-0.0373532 -0.163456 0)
(0.00121941 0.102774 0)
(-0.00894506 0.183508 0)
(-0.0256498 0.223194 0)
(-0.0396508 0.242816 0)
(-0.0491316 0.239582 0)
(-0.0540052 0.215607 0)
(-0.0559749 0.178851 0)
(-0.0566874 0.137154 0)
(-0.0576479 0.0953998 0)
(-0.0593895 0.0552682 0)
(-0.0616821 0.0163096 0)
(-0.0643823 -0.0224885 0)
(-0.0674812 -0.0617329 0)
(-0.071157 -0.101623 0)
(-0.0763418 -0.142829 0)
(-0.0846057 -0.188973 0)
(-0.0960748 -0.248397 0)
(-0.100659 -0.324362 0)
(-0.0951798 -0.372268 0)
(-0.0309254 -0.242609 0)
(0.00511878 0.10394 0)
(0.00295756 0.193109 0)
(-0.00539075 0.23369 0)
(-0.0125084 0.25085 0)
(-0.0168998 0.244765 0)
(-0.018787 0.218548 0)
(-0.0194752 0.180485 0)
(-0.0200032 0.13841 0)
(-0.0213012 0.0969537 0)
(-0.0235369 0.057418 0)
(-0.0264256 0.0190808 0)
(-0.0299089 -0.0191639 0)
(-0.0340031 -0.0579715 0)
(-0.0386469 -0.0973937 0)
(-0.0443857 -0.137348 0)
(-0.0524467 -0.180219 0)
(-0.0657646 -0.235695 0)
(-0.074225 -0.31814 0)
(-0.0812021 -0.396773 0)
(-0.0229431 -0.30717 0)
(0.00845814 0.0974659 0)
(0.0142218 0.194102 0)
(0.0141049 0.237213 0)
(0.0137105 0.253631 0)
(0.0143335 0.246551 0)
(0.0155307 0.219843 0)
(0.0163906 0.181794 0)
(0.0164445 0.140079 0)
(0.0153067 0.099141 0)
(0.0130295 0.0602175 0)
(0.00986167 0.0226243 0)
(0.0057536 -0.0147487 0)
(0.000562245 -0.0526871 0)
(-0.00556298 -0.0912875 0)
(-0.0130304 -0.130179 0)
(-0.0219775 -0.170359 0)
(-0.0377185 -0.220739 0)
(-0.0487305 -0.304501 0)
(-0.0679049 -0.408517 0)
(-0.0144593 -0.360052 0)
(0.0103296 0.0844865 0)
(0.0234202 0.186506 0)
(0.0310845 0.233336 0)
(0.0370147 0.250176 0)
(0.042677 0.243337 0)
(0.0476322 0.217552 0)
(0.0510697 0.180789 0)
(0.0527456 0.140383 0)
(0.0526141 0.100622 0)
(0.0508846 0.0628152 0)
(0.0477748 0.0264545 0)
(0.0431669 -0.00951742 0)
(0.0368935 -0.0459925 0)
(0.0290786 -0.0831259 0)
(0.018924 -0.12055 0)
(0.00759856 -0.158492 0)
(-0.0118162 -0.204452 0)
(-0.0242392 -0.286503 0)
(-0.0558441 -0.411023 0)
(-0.00613759 -0.401899 0)
(0.0098782 0.0672352 0)
(0.0290314 0.170696 0)
(0.0443585 0.222245 0)
(0.0569021 0.241342 0)
(0.0681969 0.236415 0)
(0.0778851 0.213052 0)
(0.0851073 0.178759 0)
(0.0895628 0.140419 0)
(0.091328 0.102259 0)
(0.0907029 0.0658238 0)
(0.0880174 0.0309769 0)
(0.0829682 -0.00329957 0)
(0.0754538 -0.0375401 0)
(0.0657618 -0.0723202 0)
(0.0525103 -0.107444 0)
(0.0375769 -0.142793 0)
(0.0131345 -0.18428 0)
(8.16168e-05 -0.263264 0)
(-0.044797 -0.406723 0)
(0.00276576 -0.436277 0)
(0.00692985 0.0493972 0)
(0.0293662 0.148973 0)
(0.0511166 0.203654 0)
(0.0699972 0.224574 0)
(0.0874752 0.221717 0)
(0.103172 0.201558 0)
(0.115843 0.170964 0)
(0.12481 0.136073 0)
(0.129982 0.100876 0)
(0.131603 0.067048 0)
(0.129939 0.0348413 0)
(0.125016 0.00343103 0)
(0.116384 -0.0274639 0)
(0.104652 -0.0587016 0)
(0.0875574 -0.0903246 0)
(0.0683667 -0.122943 0)
(0.0383011 -0.160863 0)
(0.0238621 -0.237165 0)
(-0.0344389 -0.39897 0)
(0.0134753 -0.464435 0)
(0.00238709 0.0346269 0)
(0.0236422 0.123903 0)
(0.0509621 0.179959 0)
(0.0766971 0.202959 0)
(0.101365 0.202649 0)
(0.124251 0.186247 0)
(0.143708 0.16019 0)
(0.158518 0.129759 0)
(0.168265 0.0985661 0)
(0.173156 0.0683003 0)
(0.173131 0.0395588 0)
(0.168903 0.0119357 0)
(0.159066 -0.0149112 0)
(0.145332 -0.0417158 0)
(0.124027 -0.0687584 0)
(0.100485 -0.0975603 0)
(0.064628 -0.132716 0)
(0.0470096 -0.207462 0)
(-0.0227034 -0.387087 0)
(0.0285334 -0.485561 0)
(-0.00342613 0.0286141 0)
(0.0100728 0.101502 0)
(0.0371146 0.148702 0)
(0.0689829 0.16947 0)
(0.101881 0.170691 0)
(0.133604 0.1584 0)
(0.161605 0.137964 0)
(0.184154 0.11356 0)
(0.200205 0.088272 0)
(0.210131 0.0636298 0)
(0.213056 0.0403787 0)
(0.210802 0.0184012 0)
(0.200537 -0.0026776 0)
(0.185904 -0.0233147 0)
(0.161086 -0.0439809 0)
(0.134466 -0.0677431 0)
(0.0929314 -0.101695 0)
(0.0698779 -0.180015 0)
(-0.00436662 -0.370054 0)
(0.0521617 -0.491642 0)
(-0.0140113 0.0185179 0)
(-0.00751591 0.0881762 0)
(0.0192204 0.124196 0)
(0.0564565 0.137323 0)
(0.097614 0.136915 0)
(0.138 0.127733 0)
(0.174257 0.113076 0)
(0.204105 0.0952963 0)
(0.226003 0.076823 0)
(0.241098 0.0586733 0)
(0.247133 0.0418003 0)
(0.24805 0.0261059 0)
(0.23871 0.0117421 0)
(0.226892 -0.00204928 0)
(0.201891 -0.0160895 0)
(0.177904 -0.0350259 0)
(0.133555 -0.0678043 0)
(0.10784 -0.146002 0)
(0.0374725 -0.326119 0)
(0.0923676 -0.455871 0)
(-0.106019 0.0824184 0)
(-0.0777596 0.0689913 0)
(-0.0485679 0.0733702 0)
(0.00378132 0.0778901 0)
(0.057298 0.0782241 0)
(0.110032 0.0739599 0)
(0.157202 0.0666246 0)
(0.199567 0.0572198 0)
(0.231679 0.0475437 0)
(0.259833 0.037887 0)
(0.275561 0.0292196 0)
(0.290716 0.0212334 0)
(0.291068 0.0144758 0)
(0.295178 0.00809244 0)
(0.278875 0.0011244 0)
(0.271659 -0.0100131 0)
(0.232347 -0.0355681 0)
(0.218143 -0.0954192 0)
(0.150208 -0.229723 0)
(0.170672 -0.341455 0)
(0.129969 0.103745 0)
(0.15832 0.0752283 0)
(0.212166 0.0532282 0)
(0.270674 0.0416232 0)
(0.32325 0.0359134 0)
(0.375692 0.0319489 0)
(0.420287 0.0289166 0)
(0.465606 0.0255811 0)
(0.498702 0.022903 0)
(0.533953 0.0197106 0)
(0.553391 0.0175478 0)
(0.579201 0.0146099 0)
(0.585339 0.0131651 0)
(0.603678 0.0103462 0)
(0.595098 0.00938381 0)
(0.6036 0.00500007 0)
(0.567791 8.94323e-05 0)
(0.547613 -0.0183158 0)
(0.435691 -0.0504144 0)
(0.336754 -0.101386 0)
)
;

boundaryField
{
    movingWall
    {
        type            fixedValue;
        value           uniform (1 0 0);
    }
    fixedWalls
    {
        type            noSlip;
    }
    frontAndBack
    {
        type            empty;
    }
}


// ************************************************************************* //
