/*--------------------------------*- C++ -*----------------------------------*\
| =========                 |                                                 |
| \\      /  F ield         | OpenFOAM: The Open Source CFD Toolbox           |
|  \\    /   O peration     | Version:  2212                                  |
|   \\  /    A nd           | Website:  www.openfoam.com                      |
|    \\/     M anipulation  |                                                 |
\*---------------------------------------------------------------------------*/
FoamFile
{
    version     2.0;
    format      ascii;
    arch        "LSB;label=32;scalar=64";
    class       volScalarField;
    location    "16";
    object      T;
}
// * * * * * * * * * * * * * * * * * * * * * * * * * * * * * * * * * * * * * //

dimensions      [0 0 0 1 0 0 0];

internalField   nonuniform List<scalar> 
400
(
0.9682
0.968869
0.970226
0.972235
0.97458
0.976725
0.978268
0.97917
0.97966
0.979993
0.980298
0.980613
0.98095
0.981299
0.981606
0.981784
0.981691
0.981176
0.980323
0.979624
0.969054
0.969874
0.971517
0.97387
0.976365
0.97821
0.979117
0.979436
0.979544
0.979626
0.979795
0.980118
0.980617
0.981266
0.981934
0.982421
0.982424
0.981713
0.98059
0.979782
0.970387
0.97149
0.973536
0.976002
0.977947
0.978772
0.978739
0.978337
0.977836
0.977457
0.977392
0.977775
0.978612
0.979876
0.981341
0.982671
0.98331
0.982703
0.981082
0.980077
0.971692
0.973088
0.975321
0.97732
0.97817
0.977782
0.976678
0.975273
0.973886
0.972861
0.97246
0.972904
0.974138
0.976188
0.978774
0.981494
0.983607
0.984137
0.982344
0.980765
0.972696
0.974259
0.976315
0.977423
0.976974
0.975274
0.972897
0.970281
0.967889
0.966145
0.965357
0.965783
0.967355
0.970128
0.97385
0.978121
0.982191
0.984906
0.984608
0.98204
0.973355
0.974908
0.976491
0.976506
0.974709
0.971653
0.96795
0.964148
0.960833
0.958453
0.957324
0.957649
0.959425
0.962682
0.967256
0.972801
0.978661
0.983752
0.986289
0.983904
0.973717
0.975099
0.97604
0.974945
0.971889
0.967578
0.962692
0.957919
0.953913
0.951111
0.949776
0.950012
0.951853
0.955313
0.960328
0.966686
0.973857
0.980837
0.986026
0.98658
0.973866
0.975
0.975296
0.973227
0.969089
0.963707
0.957872
0.952397
0.947956
0.944941
0.943525
0.943726
0.945549
0.948991
0.954066
0.960753
0.968765
0.977198
0.984393
0.98801
0.97387
0.974739
0.974468
0.971622
0.966645
0.960463
0.953966
0.948039
0.94335
0.940234
0.938786
0.938971
0.940756
0.944099
0.94901
0.955608
0.963968
0.973496
0.9823
0.987359
0.973783
0.974434
0.973777
0.970445
0.964927
0.958217
0.951285
0.945066
0.940215
0.937014
0.935508
0.935651
0.937393
0.940651
0.94536
0.951638
0.959885
0.970072
0.980406
0.986865
0.973637
0.974137
0.973266
0.969702
0.963925
0.956973
0.949859
0.943517
0.93857
0.935271
0.933655
0.933693
0.935345
0.938511
0.94304
0.948933
0.95674
0.967106
0.978646
0.98655
0.97345
0.973881
0.973004
0.969526
0.963822
0.95692
0.949842
0.943497
0.938487
0.935071
0.933303
0.933174
0.934655
0.937651
0.941963
0.947441
0.954604
0.964762
0.977236
0.986377
0.973217
0.973649
0.972904
0.969738
0.964384
0.95781
0.951013
0.944855
0.939911
0.93645
0.934552
0.934221
0.935447
0.938143
0.942109
0.947109
0.953484
0.963046
0.976124
0.986358
0.972924
0.973426
0.972957
0.970356
0.96567
0.959734
0.953481
0.947706
0.942957
0.939519
0.937506
0.936923
0.937794
0.940035
0.943472
0.947836
0.953324
0.96205
0.975407
0.986463
0.97254
0.973149
0.972952
0.970967
0.967113
0.96206
0.956628
0.951518
0.947217
0.943997
0.941993
0.941204
0.94167
0.943326
0.946037
0.949618
0.954159
0.961763
0.975034
0.986696
0.972086
0.972829
0.972986
0.971722
0.968879
0.964937
0.960561
0.956332
0.952667
0.949806
0.947882
0.946914
0.946916
0.94787
0.949697
0.95231
0.955823
0.962074
0.975023
0.987063
0.971634
0.972364
0.972637
0.971893
0.969984
0.967221
0.964069
0.960953
0.958175
0.955924
0.954283
0.9533
0.952944
0.953253
0.954222
0.955838
0.958427
0.963488
0.97578
0.987687
0.971314
0.972202
0.972745
0.972444
0.971367
0.9697
0.967714
0.965669
0.963754
0.962114
0.960797
0.959867
0.959316
0.959179
0.959544
0.960375
0.962277
0.966167
0.977196
0.988473
0.966988
0.971236
0.971222
0.971068
0.970488
0.969715
0.968833
0.968014
0.967261
0.966705
0.966298
0.966113
0.966122
0.966312
0.966829
0.96749
0.969185
0.972139
0.980501
0.989821
0.976814
0.979616
0.981116
0.982014
0.982494
0.982794
0.982951
0.983111
0.983223
0.9834
0.983556
0.983793
0.984014
0.984314
0.984604
0.985006
0.98552
0.986604
0.988768
0.992577
)
;

boundaryField
{
    movingWall
    {
        type            fixedValue;
        value           uniform 1;
    }
    fixedWalls
    {
        type            zeroGradient;
    }
    frontAndBack
    {
        type            empty;
    }
}


// ************************************************************************* //
