/*--------------------------------*- C++ -*----------------------------------*\
| =========                 |                                                 |
| \\      /  F ield         | OpenFOAM: The Open Source CFD Toolbox           |
|  \\    /   O peration     | Version:  2212                                  |
|   \\  /    A nd           | Website:  www.openfoam.com                      |
|    \\/     M anipulation  |                                                 |
\*---------------------------------------------------------------------------*/
FoamFile
{
    version     2.0;
    format      ascii;
    arch        "LSB;label=32;scalar=64";
    class       volScalarField;
    location    "5.6";
    object      p;
}
// * * * * * * * * * * * * * * * * * * * * * * * * * * * * * * * * * * * * * //

dimensions      [0 2 -2 0 0 0 0];

internalField   nonuniform List<scalar> 
400
(
-4.82704e-07
-0.000151404
-0.000534768
-0.00107105
-0.00173068
-0.00249069
-0.00318059
-0.00359247
-0.00356007
-0.00292932
-0.00154534
0.00062009
0.00324858
0.00551414
0.00653873
0.0059357
0.00402179
0.00217293
0.00113432
0.00106456
0.000115385
-5.8781e-05
-0.000377058
-0.000763658
-0.00124295
-0.00188593
-0.00270222
-0.00353746
-0.00407245
-0.00393079
-0.00284039
-0.000821347
0.00169106
0.00396351
0.00513196
0.00475764
0.00312498
0.00139904
0.000617594
0.000707457
0.000534561
0.000263808
-7.7753e-05
-0.000559334
-0.00134553
-0.00257601
-0.00421025
-0.00597001
-0.00738484
-0.00792473
-0.00724654
-0.0054471
-0.00287959
-0.000183617
0.0018049
0.0024457
0.0017322
0.000527877
-0.00037009
-0.000368228
0.00114809
0.00073827
0.000190332
-0.000774033
-0.00244596
-0.00492567
-0.00797404
-0.01109
-0.0136652
-0.0151348
-0.0151648
-0.0138009
-0.0112595
-0.00799983
-0.00472612
-0.00218456
-0.000844882
-0.000680305
-0.00126239
-0.00189241
0.00157602
0.000968127
-2.52939e-05
-0.00192064
-0.0049936
-0.00915386
-0.0138723
-0.0184234
-0.0221475
-0.0245765
-0.02545
-0.0246477
-0.022296
-0.0186857
-0.0142567
-0.00961637
-0.00555966
-0.00292128
-0.00216794
-0.00399027
0.00128375
0.000438057
-0.00119847
-0.00429464
-0.00897905
-0.0148344
-0.0210048
-0.0266267
-0.0310856
-0.0340615
-0.035424
-0.0350718
-0.0330893
-0.0296253
-0.0248221
-0.0188999
-0.0124593
-0.00691459
-0.00437322
-0.00649314
-5.74392e-05
-0.00115297
-0.00349583
-0.00777687
-0.0138896
-0.0210445
-0.0281385
-0.0342839
-0.0389829
-0.042071
-0.0435525
-0.0434465
-0.0418206
-0.0387451
-0.0341993
-0.0280689
-0.0204733
-0.012657
-0.00782198
-0.00772002
-0.00245542
-0.00374244
-0.00668674
-0.0118802
-0.0189778
-0.0268871
-0.0343761
-0.0406196
-0.0452644
-0.0482711
-0.0497246
-0.0497184
-0.0483314
-0.045612
-0.0415142
-0.0358083
-0.028236
-0.0193081
-0.0117818
-0.00795428
-0.0055353
-0.00690755
-0.0102415
-0.0159746
-0.0235774
-0.0317713
-0.039295
-0.0454203
-0.0499131
-0.0528096
-0.0542267
-0.0542684
-0.0530092
-0.0505084
-0.0467783
-0.0416642
-0.034754
-0.0258651
-0.0166548
-0.00996013
-0.00872315
-0.0100696
-0.0135652
-0.019482
-0.0271896
-0.0353496
-0.0427328
-0.0486903
-0.0530545
-0.0558857
-0.0572954
-0.0573675
-0.0561649
-0.0537606
-0.0502381
-0.0455883
-0.0395002
-0.031424
-0.0222502
-0.0142889
-0.0114866
-0.0127345
-0.0161789
-0.0219851
-0.0294997
-0.0374386
-0.0446325
-0.0504627
-0.0547685
-0.0575913
-0.0590183
-0.0591102
-0.0579174
-0.055518
-0.0520561
-0.0476655
-0.0422858
-0.0352723
-0.0271154
-0.0191139
-0.0135278
-0.0145912
-0.0178116
-0.0232428
-0.0303204
-0.0379093
-0.0449198
-0.0507085
-0.0550496
-0.0579319
-0.0594038
-0.0595066
-0.0582815
-0.0558078
-0.0522819
-0.0479503
-0.0430621
-0.0369468
-0.0299477
-0.0223464
-0.0148147
-0.0155401
-0.0183086
-0.0231405
-0.0295879
-0.0367322
-0.0435746
-0.0494078
-0.0538848
-0.0569023
-0.0584559
-0.0585637
-0.0572619
-0.0546521
-0.0509559
-0.0464817
-0.041835
-0.0362044
-0.0301518
-0.0228322
-0.0154458
-0.015697
-0.0177397
-0.0216861
-0.0272977
-0.0339017
-0.0405798
-0.0465294
-0.0512455
-0.0544934
-0.0561926
-0.0563346
-0.0549309
-0.0521149
-0.0481511
-0.0434344
-0.0386281
-0.0330721
-0.028045
-0.0202358
-0.0155542
-0.0152776
-0.0163095
-0.0190423
-0.0235818
-0.0295296
-0.0360296
-0.0421558
-0.0472132
-0.0507988
-0.0527258
-0.0529308
-0.051456
-0.0483895
-0.0440685
-0.0389438
-0.0337166
-0.0280388
-0.0242073
-0.0143734
-0.0152596
-0.0145346
-0.0142429
-0.0153987
-0.018639
-0.0238214
-0.0301246
-0.0364724
-0.0419627
-0.0460009
-0.0482758
-0.0486546
-0.0471592
-0.0438603
-0.0391325
-0.0334512
-0.027618
-0.0216371
-0.0180757
-0.00385958
-0.0146488
-0.0136079
-0.0117001
-0.0110735
-0.0129353
-0.0173405
-0.0234645
-0.0300675
-0.0360587
-0.0406521
-0.0434057
-0.0440897
-0.0426956
-0.0392548
-0.0341081
-0.0276622
-0.0207008
-0.0133288
-0.00685751
0.0159897
-0.0145762
-0.0126528
-0.00865245
-0.0062457
-0.00691724
-0.0107367
-0.0167823
-0.0236729
-0.0302006
-0.0354163
-0.0387665
-0.0398984
-0.0387571
-0.0353578
-0.0298486
-0.0222794
-0.0129264
-0.000780909
0.0165846
0.0569722
-0.011794
-0.0118332
-0.00574213
-0.00180229
-0.0017917
-0.00541816
-0.0115642
-0.0187734
-0.0258031
-0.0315896
-0.035549
-0.0372464
-0.0365827
-0.0332813
-0.0271935
-0.0175622
-0.00322098
0.0203774
0.0605801
0.129721
-0.0295135
-0.0106365
-0.000631913
0.00304616
0.00241325
-0.00157955
-0.00799844
-0.0155222
-0.022914
-0.0290855
-0.033427
-0.0354796
-0.0351043
-0.0318856
-0.0251966
-0.0128764
0.00935562
0.0510679
0.122767
0.225986
)
;

boundaryField
{
    movingWall
    {
        type            zeroGradient;
    }
    fixedWalls
    {
        type            zeroGradient;
    }
    frontAndBack
    {
        type            empty;
    }
}


// ************************************************************************* //
