/*--------------------------------*- C++ -*----------------------------------*\
| =========                 |                                                 |
| \\      /  F ield         | OpenFOAM: The Open Source CFD Toolbox           |
|  \\    /   O peration     | Version:  2212                                  |
|   \\  /    A nd           | Website:  www.openfoam.com                      |
|    \\/     M anipulation  |                                                 |
\*---------------------------------------------------------------------------*/
FoamFile
{
    version     2.0;
    format      ascii;
    arch        "LSB;label=32;scalar=64";
    class       volVectorField;
    location    "5.6";
    object      U;
}
// * * * * * * * * * * * * * * * * * * * * * * * * * * * * * * * * * * * * * //

dimensions      [0 1 -1 0 0 0 0];

internalField   nonuniform List<vector> 
400
(
(0.00167767 -0.00167946 0)
(0.00482459 -0.00188714 0)
(0.0065683 -0.00119784 0)
(0.00564922 -0.000573205 0)
(0.00154893 0.0001857 0)
(-0.00684191 0.00173905 0)
(-0.0205992 0.00477869 0)
(-0.0395001 0.00871903 0)
(-0.060738 0.0112737 0)
(-0.0790482 0.0105019 0)
(-0.0897286 0.00677517 0)
(-0.090402 0.00167843 0)
(-0.0802025 -0.0036006 0)
(-0.0600121 -0.00825744 0)
(-0.0335778 -0.0108329 0)
(-0.00537457 -0.00978933 0)
(0.0166377 -0.00478427 0)
(0.0244055 0.00276126 0)
(0.0161508 0.00645793 0)
(0.00431208 0.00471015 0)
(0.00171217 -0.00504736 0)
(0.00313928 -0.00401344 0)
(-0.000448191 0.000596118 0)
(-0.0113526 0.006439 0)
(-0.0314199 0.0140331 0)
(-0.0610933 0.0237357 0)
(-0.0967316 0.0330043 0)
(-0.131298 0.0370351 0)
(-0.158786 0.0334786 0)
(-0.175913 0.0233901 0)
(-0.181275 0.00912569 0)
(-0.17493 -0.00695106 0)
(-0.157453 -0.0231184 0)
(-0.129588 -0.0368537 0)
(-0.0935989 -0.0445143 0)
(-0.0522241 -0.0418116 0)
(-0.011459 -0.0263454 0)
(0.0168225 -0.00132042 0)
(0.0178349 0.0161812 0)
(0.00553579 0.0147963 0)
(-0.000247843 -0.00574725 0)
(-0.00539712 0.00083111 0)
(-0.0196165 0.0142977 0)
(-0.0444762 0.0311971 0)
(-0.0802516 0.049368 0)
(-0.122044 0.0642155 0)
(-0.162129 0.070438 0)
(-0.195008 0.0659407 0)
(-0.218574 0.0521384 0)
(-0.232233 0.0315244 0)
(-0.235996 0.00645112 0)
(-0.230532 -0.0210388 0)
(-0.216151 -0.0487687 0)
(-0.19235 -0.0731107 0)
(-0.158865 -0.0889212 0)
(-0.11566 -0.0891599 0)
(-0.0645427 -0.0670166 0)
(-0.0138543 -0.0227212 0)
(0.00945755 0.0178495 0)
(0.00415461 0.0235411 0)
(-0.0034722 0.000492458 0)
(-0.0175045 0.0172574 0)
(-0.0434733 0.0414585 0)
(-0.0795785 0.068092 0)
(-0.122778 0.0910131 0)
(-0.165599 0.103684 0)
(-0.201613 0.102753 0)
(-0.228893 0.0895555 0)
(-0.247703 0.0672576 0)
(-0.258643 0.0385677 0)
(-0.262553 0.00536651 0)
(-0.260238 -0.0310089 0)
(-0.251636 -0.0683012 0)
(-0.235702 -0.103564 0)
(-0.210444 -0.131313 0)
(-0.173161 -0.142748 0)
(-0.121292 -0.125689 0)
(-0.0568171 -0.0708685 0)
(-0.00100683 0.00348822 0)
(0.00474151 0.028191 0)
(-0.00665433 0.0148074 0)
(-0.0286891 0.0440885 0)
(-0.0631928 0.0769914 0)
(-0.104289 0.108747 0)
(-0.14703 0.130997 0)
(-0.184265 0.137982 0)
(-0.212552 0.129314 0)
(-0.232292 0.108599 0)
(-0.244777 0.0797061 0)
(-0.251732 0.0454249 0)
(-0.254847 0.00729507 0)
(-0.255043 -0.0338668 0)
(-0.252096 -0.0768902 0)
(-0.245459 -0.120453 0)
(-0.232319 -0.160578 0)
(-0.208058 -0.188809 0)
(-0.166629 -0.189816 0)
(-0.103345 -0.142808 0)
(-0.0221843 -0.0389053 0)
(0.00736841 0.0270413 0)
(-0.00849448 0.0348613 0)
(-0.0351117 0.0765603 0)
(-0.0729567 0.114783 0)
(-0.11305 0.147462 0)
(-0.150241 0.165764 0)
(-0.179048 0.165708 0)
(-0.198524 0.149528 0)
(-0.210223 0.122317 0)
(-0.21613 0.0884208 0)
(-0.218729 0.0508273 0)
(-0.219983 0.0110067 0)
(-0.220895 -0.0306113 0)
(-0.221663 -0.0744926 0)
(-0.22239 -0.121008 0)
(-0.220881 -0.168934 0)
(-0.212044 -0.212779 0)
(-0.18779 -0.238348 0)
(-0.139523 -0.21837 0)
(-0.0627756 -0.118884 0)
(0.00582466 0.0141582 0)
(-0.0082726 0.0569461 0)
(-0.0352639 0.10987 0)
(-0.0716846 0.150261 0)
(-0.106852 0.180886 0)
(-0.136425 0.193557 0)
(-0.15678 0.186174 0)
(-0.168639 0.163043 0)
(-0.174121 0.130307 0)
(-0.175636 0.0927331 0)
(-0.175686 0.0533366 0)
(-0.175774 0.0133588 0)
(-0.176579 -0.0271412 0)
(-0.178649 -0.0692969 0)
(-0.182522 -0.114375 0)
(-0.187552 -0.163484 0)
(-0.190103 -0.215474 0)
(-0.182284 -0.261371 0)
(-0.154094 -0.274944 0)
(-0.0992671 -0.205754 0)
(-0.00890355 -0.0146552 0)
(-0.00611714 0.0774913 0)
(-0.0297179 0.14036 0)
(-0.0612835 0.180937 0)
(-0.0896904 0.207989 0)
(-0.111647 0.214561 0)
(-0.125137 0.200248 0)
(-0.131771 0.171044 0)
(-0.133858 0.133928 0)
(-0.133851 0.0938872 0)
(-0.133693 0.0536338 0)
(-0.134067 0.013891 0)
(-0.135156 -0.0256998 0)
(-0.13742 -0.0661463 0)
(-0.141548 -0.108659 0)
(-0.148151 -0.155208 0)
(-0.155914 -0.208155 0)
(-0.158852 -0.265551 0)
(-0.146588 -0.30785 0)
(-0.112128 -0.276988 0)
(-0.0309168 -0.0752812 0)
(-0.00271792 0.0934642 0)
(-0.0203596 0.165396 0)
(-0.0450366 0.205276 0)
(-0.0661803 0.228209 0)
(-0.0814058 0.229156 0)
(-0.0898547 0.209179 0)
(-0.093434 0.175449 0)
(-0.0942825 0.135451 0)
(-0.0944948 0.0941807 0)
(-0.0952372 0.0538637 0)
(-0.0965552 0.0145959 0)
(-0.0983565 -0.0243903 0)
(-0.100812 -0.0638576 0)
(-0.104427 -0.104488 0)
(-0.110349 -0.147904 0)
(-0.119307 -0.19805 0)
(-0.128149 -0.259375 0)
(-0.126396 -0.32313 0)
(-0.10738 -0.33448 0)
(-0.0373029 -0.163242 0)
(0.00122133 0.102576 0)
(-0.0089092 0.183192 0)
(-0.0255696 0.22279 0)
(-0.0395315 0.242354 0)
(-0.0489796 0.239103 0)
(-0.0538203 0.215135 0)
(-0.0557475 0.178393 0)
(-0.0564103 0.13673 0)
(-0.0573226 0.0950541 0)
(-0.0590272 0.0550578 0)
(-0.0612967 0.0162849 0)
(-0.0639867 -0.022304 0)
(-0.0670904 -0.061346 0)
(-0.0707897 -0.10107 0)
(-0.0760204 -0.142177 0)
(-0.084356 -0.188325 0)
(-0.0959029 -0.247858 0)
(-0.100566 -0.323955 0)
(-0.0951104 -0.371921 0)
(-0.0309 -0.242326 0)
(0.00510729 0.103729 0)
(0.00295993 0.192763 0)
(-0.00536423 0.233257 0)
(-0.0124598 0.250359 0)
(-0.0168327 0.244256 0)
(-0.0187014 0.218042 0)
(-0.0193656 0.179991 0)
(-0.0198663 0.137947 0)
(-0.0211407 0.0965711 0)
(-0.0233604 0.0571752 0)
(-0.0262377 0.0190294 0)
(-0.029711 -0.0189994 0)
(-0.0337966 -0.0575947 0)
(-0.0384391 -0.0968339 0)
(-0.0441888 -0.136662 0)
(-0.0522853 -0.179503 0)
(-0.065652 -0.235082 0)
(-0.0741839 -0.31769 0)
(-0.0811701 -0.396404 0)
(-0.0229323 -0.30685 0)
(0.00843106 0.0972651 0)
(0.0141866 0.193746 0)
(0.0140724 0.236769 0)
(0.013681 0.253129 0)
(0.0143051 0.246028 0)
(0.0155031 0.219321 0)
(0.0163654 0.181282 0)
(0.0164221 0.1396 0)
(0.0152828 0.0987415 0)
(0.0130004 0.0599569 0)
(0.00983143 0.0225516 0)
(0.00573215 -0.0146093 0)
(0.000559501 -0.0523368 0)
(-0.00554475 -0.0907516 0)
(-0.0129895 -0.129502 0)
(-0.0219334 -0.169622 0)
(-0.0376846 -0.220082 0)
(-0.048749 -0.304032 0)
(-0.0679116 -0.408157 0)
(-0.0144627 -0.359729 0)
(0.0102891 0.084324 0)
(0.0233475 0.186164 0)
(0.0309933 0.2329 0)
(0.036908 0.24968 0)
(0.0425541 0.242817 0)
(0.0474923 0.217033 0)
(0.0509116 0.180285 0)
(0.052567 0.139917 0)
(0.0524119 0.100234 0)
(0.0506591 0.0625576 0)
(0.0475363 0.0263718 0)
(0.0429345 -0.0094011 0)
(0.0366851 -0.0456746 0)
(0.0289047 -0.0826291 0)
(0.0188002 -0.119911 0)
(0.00751421 -0.157772 0)
(-0.0118694 -0.203782 0)
(-0.0243152 -0.286026 0)
(-0.055883 -0.41068 0)
(-0.00615034 -0.4016 0)
(0.00983445 0.067135 0)
(0.0289298 0.170397 0)
(0.0442166 0.221839 0)
(0.0567256 0.240872 0)
(0.0679864 0.235918 0)
(0.0776399 0.212557 0)
(0.0848255 0.178282 0)
(0.0892417 0.139982 0)
(0.0909667 0.101898 0)
(0.0903061 0.0655817 0)
(0.0875964 0.0308907 0)
(0.0825511 -0.00320384 0)
(0.0750636 -0.0372625 0)
(0.0654144 -0.071879 0)
(0.0522312 -0.106869 0)
(0.0373643 -0.14213 0)
(0.012991 -0.183641 0)
(-4.43148e-05 -0.262808 0)
(-0.0448622 -0.406413 0)
(0.00274408 -0.436022 0)
(0.00689759 0.0493688 0)
(0.0292524 0.148742 0)
(0.0509396 0.203299 0)
(0.0697678 0.224148 0)
(0.0871963 0.221261 0)
(0.102843 0.201105 0)
(0.115463 0.170533 0)
(0.124376 0.135687 0)
(0.129497 0.100561 0)
(0.131074 0.0668397 0)
(0.129381 0.0347668 0)
(0.124455 0.0035122 0)
(0.115847 -0.0272288 0)
(0.104161 -0.0583247 0)
(0.0871488 -0.0898296 0)
(0.0680424 -0.122365 0)
(0.0380758 -0.160292 0)
(0.0237107 -0.236753 0)
(-0.0345208 -0.398703 0)
(0.0134425 -0.464243 0)
(0.00237456 0.034657 0)
(0.0235436 0.12376 0)
(0.0507781 0.17968 0)
(0.0764406 0.202601 0)
(0.101042 0.202255 0)
(0.123861 0.185852 0)
(0.143252 0.159816 0)
(0.157997 0.129427 0)
(0.167684 0.0982991 0)
(0.172526 0.0681233 0)
(0.172471 0.039492 0)
(0.168235 0.0119934 0)
(0.158423 -0.0147288 0)
(0.144737 -0.0414142 0)
(0.123521 -0.0683573 0)
(0.100076 -0.0970924 0)
(0.0643356 -0.132243 0)
(0.0468453 -0.207137 0)
(-0.0227995 -0.386908 0)
(0.0284867 -0.485439 0)
(-0.00341834 0.0286878 0)
(0.0100036 0.10145 0)
(0.0369521 0.148507 0)
(0.0687364 0.169192 0)
(0.101553 0.170375 0)
(0.133197 0.15808 0)
(0.16112 0.137664 0)
(0.183593 0.113299 0)
(0.199578 0.0880671 0)
(0.209447 0.0634982 0)
(0.21234 0.0403356 0)
(0.21007 0.0184524 0)
(0.199832 -0.00252611 0)
(0.185248 -0.0230754 0)
(0.160522 -0.0436721 0)
(0.134009 -0.0673936 0)
(0.09261 -0.101341 0)
(0.0697192 -0.179756 0)
(-0.00445542 -0.369944 0)
(0.0521176 -0.491584 0)
(-0.013963 0.0185892 0)
(-0.00750895 0.0881919 0)
(0.0191259 0.124104 0)
(0.056265 0.137154 0)
(0.0973209 0.136703 0)
(0.137607 0.127508 0)
(0.173769 0.11286 0)
(0.203527 0.0951068 0)
(0.225353 0.0766748 0)
(0.240385 0.0585767 0)
(0.246392 0.0417676 0)
(0.247296 0.0261376 0)
(0.237992 0.0118445 0)
(0.226219 -0.00189437 0)
(0.201316 -0.0158873 0)
(0.177451 -0.0348043 0)
(0.133239 -0.0675851 0)
(0.107681 -0.145878 0)
(0.0374013 -0.326106 0)
(0.0923386 -0.455867 0)
(-0.105984 0.0824686 0)
(-0.0777278 0.0690348 0)
(-0.0485747 0.0733393 0)
(0.00370158 0.0778111 0)
(0.0571273 0.0781156 0)
(0.109766 0.07384 0)
(0.156846 0.0665092 0)
(0.199123 0.0571193 0)
(0.23117 0.0474689 0)
(0.25927 0.0378418 0)
(0.274978 0.0292107 0)
(0.290128 0.0212575 0)
(0.290514 0.0145338 0)
(0.294673 0.00817378 0)
(0.278463 0.00122849 0)
(0.271342 -0.00991073 0)
(0.232128 -0.0354798 0)
(0.218051 -0.0953814 0)
(0.150193 -0.229723 0)
(0.170669 -0.341466 0)
(0.129988 0.103757 0)
(0.15836 0.0752639 0)
(0.212231 0.0532692 0)
(0.270737 0.041656 0)
(0.323286 0.0359347 0)
(0.375679 0.0319597 0)
(0.420219 0.0289214 0)
(0.46548 0.0255831 0)
(0.498528 0.0229062 0)
(0.53374 0.0197163 0)
(0.55316 0.0175581 0)
(0.578968 0.0146244 0)
(0.585123 0.0131848 0)
(0.603496 0.0103697 0)
(0.594965 0.00941022 0)
(0.603521 0.00502355 0)
(0.567768 0.000108129 0)
(0.547645 -0.018305 0)
(0.435748 -0.0504148 0)
(0.336781 -0.101392 0)
)
;

boundaryField
{
    movingWall
    {
        type            fixedValue;
        value           uniform (1 0 0);
    }
    fixedWalls
    {
        type            noSlip;
    }
    frontAndBack
    {
        type            empty;
    }
}


// ************************************************************************* //
