/*--------------------------------*- C++ -*----------------------------------*\
| =========                 |                                                 |
| \\      /  F ield         | OpenFOAM: The Open Source CFD Toolbox           |
|  \\    /   O peration     | Version:  2212                                  |
|   \\  /    A nd           | Website:  www.openfoam.com                      |
|    \\/     M anipulation  |                                                 |
\*---------------------------------------------------------------------------*/
FoamFile
{
    version     2.0;
    format      ascii;
    arch        "LSB;label=32;scalar=64";
    class       surfaceScalarField;
    location    "4.9";
    object      phi;
}
// * * * * * * * * * * * * * * * * * * * * * * * * * * * * * * * * * * * * * //

dimensions      [0 3 -1 0 0 0 0];

oriented        oriented;

internalField   nonuniform List<scalar> 
760
(
1.55154e-07
-1.55142e-07
2.91585e-07
-1.3643e-07
3.07446e-07
-1.58618e-08
1.81177e-07
1.26269e-07
-1.22165e-07
3.03342e-07
-6.66139e-07
5.43975e-07
-1.48264e-06
8.16505e-07
-2.48495e-06
1.00231e-06
-3.47197e-06
9.87013e-07
-4.21121e-06
7.39246e-07
-4.53581e-06
3.24598e-07
-4.34846e-06
-1.87354e-07
-3.59268e-06
-7.55773e-07
-2.38231e-06
-1.21038e-06
-9.4697e-07
-1.43533e-06
3.38962e-07
-1.28593e-06
1.08245e-06
-7.43489e-07
1.02883e-06
5.36218e-08
4.59552e-07
5.69276e-07
4.59552e-07
1.2341e-07
-2.78553e-07
7.16447e-08
-8.46651e-08
-2.99735e-07
3.55517e-07
-1.07953e-06
9.06064e-07
-2.31248e-06
1.53629e-06
-3.91848e-06
2.14998e-06
-5.64813e-06
2.54616e-06
-7.18924e-06
2.54341e-06
-8.31751e-06
2.11528e-06
-8.92308e-06
1.34482e-06
-8.95885e-06
3.60369e-07
-8.40212e-06
-7.44089e-07
-7.28407e-06
-1.87382e-06
-5.63766e-06
-2.85679e-06
-3.60647e-06
-3.46652e-06
-1.49465e-06
-3.39776e-06
1.72228e-07
-2.41037e-06
8.54114e-07
-6.28265e-07
5.23822e-07
8.99569e-07
9.83374e-07
-1.28838e-07
-1.49715e-07
-6.35015e-07
4.21512e-07
-1.62349e-06
1.34399e-06
-3.13493e-06
2.41751e-06
-5.0443e-06
3.44566e-06
-7.0537e-06
4.15937e-06
-8.84882e-06
4.34128e-06
-1.02497e-05
3.94429e-06
-1.12045e-05
3.07008e-06
-1.17055e-05
1.84581e-06
-1.17012e-05
3.56078e-07
-1.12448e-05
-1.20047e-06
-1.03161e-05
-2.80255e-06
-8.86067e-06
-4.31221e-06
-6.85848e-06
-5.4687e-06
-4.3983e-06
-5.85794e-06
-1.87882e-06
-4.92985e-06
-8.87412e-08
-2.41834e-06
2.9374e-07
5.17087e-07
1.27711e-06
-4.99965e-07
3.5025e-07
-1.55694e-06
1.47849e-06
-3.11127e-06
2.89832e-06
-5.06613e-06
4.37236e-06
-7.16275e-06
5.54229e-06
-9.09462e-06
6.09124e-06
-1.06598e-05
5.9065e-06
-1.18156e-05
5.10008e-06
-1.259e-05
3.84441e-06
-1.30176e-05
2.2735e-06
-1.30838e-05
4.22277e-07
-1.28465e-05
-1.4378e-06
-1.22674e-05
-3.38167e-06
-1.12446e-05
-5.33506e-06
-9.64693e-06
-7.06633e-06
-7.3498e-06
-8.15507e-06
-4.39144e-06
-7.88821e-06
-1.37759e-06
-5.43219e-06
1.19755e-07
-9.80255e-07
1.39687e-06
-8.59334e-07
1.20958e-06
-2.35403e-06
2.97319e-06
-4.21821e-06
4.76249e-06
-6.25802e-06
6.41217e-06
-8.19365e-06
7.47793e-06
-9.803e-06
7.70058e-06
-1.10091e-05
7.11259e-06
-1.18382e-05
5.9292e-06
-1.23523e-05
4.35847e-06
-1.26242e-05
2.54544e-06
-1.27448e-05
5.4287e-07
-1.27013e-05
-1.48131e-06
-1.24844e-05
-3.59857e-06
-1.20147e-05
-5.8047e-06
-1.11058e-05
-7.9753e-06
-9.46948e-06
-9.79135e-06
-6.80699e-06
-1.05507e-05
-3.21711e-06
-9.02208e-06
-2.61852e-07
-3.93551e-06
1.13502e-06
-1.08258e-06
2.29216e-06
-2.77354e-06
4.66416e-06
-4.65993e-06
6.64888e-06
-6.51089e-06
8.26313e-06
-8.1029e-06
9.06994e-06
-9.30489e-06
8.90257e-06
-1.01123e-05
7.92003e-06
-1.05901e-05
6.407e-06
-1.08287e-05
4.59708e-06
-1.09284e-05
2.6451e-06
-1.10108e-05
6.25233e-07
-1.10634e-05
-1.4287e-06
-1.11017e-05
-3.56022e-06
-1.10963e-05
-5.81017e-06
-1.08927e-05
-8.17882e-06
-1.01636e-05
-1.05205e-05
-8.41488e-06
-1.22994e-05
-5.23204e-06
-1.22049e-05
-1.15673e-06
-8.01082e-06
-2.17092e-08
-1.10566e-06
3.39781e-06
-2.74674e-06
6.30525e-06
-4.43776e-06
8.33989e-06
-5.96747e-06
9.79285e-06
-7.17611e-06
1.02786e-05
-8.00092e-06
9.72737e-06
-8.47905e-06
8.39817e-06
-8.69736e-06
6.62531e-06
-8.7597e-06
4.65941e-06
-8.76373e-06
2.64913e-06
-8.79275e-06
6.54252e-07
-8.86576e-06
-1.35569e-06
-9.00249e-06
-3.4235e-06
-9.21399e-06
-5.59866e-06
-9.44284e-06
-7.94998e-06
-9.45667e-06
-1.05067e-05
-8.73603e-06
-1.302e-05
-6.52431e-06
-1.44166e-05
-2.41822e-06
-1.21169e-05
-2.43993e-06
-9.31194e-07
4.32901e-06
-2.337e-06
7.71106e-06
-3.71888e-06
9.72177e-06
-4.89346e-06
1.09674e-05
-5.75973e-06
1.11448e-05
-6.30035e-06
1.0268e-05
-6.57198e-06
8.66979e-06
-6.66557e-06
6.7189e-06
-6.67771e-06
4.67155e-06
-6.68217e-06
2.65359e-06
-6.71552e-06
6.87602e-07
-6.79514e-06
-1.27607e-06
-6.94221e-06
-3.27643e-06
-7.18714e-06
-5.35373e-06
-7.54644e-06
-7.59068e-06
-7.9279e-06
-1.01252e-05
-7.92043e-06
-1.30275e-05
-6.70634e-06
-1.56307e-05
-3.5789e-06
-1.52443e-05
-6.01884e-06
-6.2176e-07
4.95077e-06
-1.68006e-06
8.76935e-06
-2.70944e-06
1.07512e-05
-3.54516e-06
1.18031e-05
-4.13149e-06
1.17312e-05
-4.47815e-06
1.06147e-05
-4.64369e-06
8.83534e-06
-4.70664e-06
6.78185e-06
-4.73978e-06
4.70469e-06
-4.78735e-06
2.70117e-06
-4.85984e-06
7.60096e-07
-4.96395e-06
-1.17196e-06
-5.10976e-06
-3.13062e-06
-5.32604e-06
-5.13745e-06
-5.66772e-06
-7.249e-06
-6.14744e-06
-9.6455e-06
-6.5454e-06
-1.26295e-05
-6.1197e-06
-1.60564e-05
-3.91783e-06
-1.74462e-05
-9.93667e-06
-2.30963e-07
5.18173e-06
-8.88986e-07
9.42738e-06
-1.55815e-06
1.14203e-05
-2.08549e-06
1.23305e-05
-2.44305e-06
1.20887e-05
-2.65487e-06
1.08265e-05
-2.76907e-06
8.94953e-06
-2.83902e-06
6.8518e-06
-2.90978e-06
4.77545e-06
-3.00371e-06
2.79509e-06
-3.12368e-06
8.80067e-07
-3.2695e-06
-1.02614e-06
-3.44153e-06
-2.9586e-06
-3.65224e-06
-4.92674e-06
-3.95281e-06
-6.94843e-06
-4.42509e-06
-9.17322e-06
-5.01497e-06
-1.20397e-05
-5.11869e-06
-1.59527e-05
-3.55505e-06
-1.90099e-05
-1.34917e-05
1.63493e-07
5.01824e-06
-6.89403e-08
9.65981e-06
-4.00588e-07
1.1752e-05
-6.50369e-07
1.25803e-05
-8.03997e-07
1.22424e-05
-8.92499e-07
1.0915e-05
-9.55371e-07
9.01241e-06
-1.02463e-06
6.92106e-06
-1.11702e-06
4.86784e-06
-1.24032e-06
2.91839e-06
-1.39693e-06
1.03668e-06
-1.58903e-06
-8.3403e-07
-1.81542e-06
-2.73221e-06
-2.07427e-06
-4.6679e-06
-2.39357e-06
-6.62913e-06
-2.86599e-06
-8.70079e-06
-3.55498e-06
-1.13507e-05
-4.02297e-06
-1.54847e-05
-3.02421e-06
-2.00086e-05
-1.65159e-05
4.99733e-07
4.51851e-06
6.97328e-07
9.46222e-06
7.40565e-07
1.17087e-05
7.76379e-07
1.25445e-05
8.21645e-07
1.21971e-05
8.50861e-07
1.08858e-05
8.44119e-07
9.01915e-06
7.93096e-07
6.97209e-06
6.9908e-07
4.96186e-06
5.63994e-07
3.05347e-06
3.83014e-07
1.21766e-06
1.49911e-07
-6.00927e-07
-1.37225e-07
-2.44507e-06
-4.85068e-07
-4.32005e-06
-8.98251e-07
-6.21594e-06
-1.42191e-06
-8.17713e-06
-2.2033e-06
-1.05693e-05
-2.95476e-06
-1.47333e-05
-2.46141e-06
-2.0502e-05
-1.89773e-05
7.54599e-07
3.76391e-06
1.35129e-06
8.86553e-06
1.7436e-06
1.13164e-05
2.07287e-06
1.22152e-05
2.34597e-06
1.1924e-05
2.53242e-06
1.06993e-05
2.62374e-06
8.92783e-06
2.63065e-06
6.96517e-06
2.56753e-06
5.02498e-06
2.44167e-06
3.17933e-06
2.24611e-06
1.41322e-06
1.96685e-06
-3.2167e-07
1.60375e-06
-2.08197e-06
1.15178e-06
-3.86809e-06
6.06134e-07
-5.6703e-06
-8.54968e-08
-7.4855e-06
-9.59507e-07
-9.69528e-06
-1.92272e-06
-1.377e-05
-1.92692e-06
-2.04978e-05
-2.09043e-05
8.68864e-07
2.89504e-06
1.80675e-06
7.92764e-06
2.5476e-06
1.05756e-05
3.18803e-06
1.15748e-05
3.73533e-06
1.13767e-05
4.14597e-06
1.02887e-05
4.40379e-06
8.67e-06
4.52279e-06
6.84617e-06
4.52636e-06
5.02141e-06
4.43017e-06
3.27552e-06
4.2326e-06
1.6108e-06
3.90335e-06
7.57619e-09
3.45954e-06
-1.63816e-06
2.87717e-06
-3.28571e-06
2.15657e-06
-4.9497e-06
1.31553e-06
-6.64446e-06
2.62547e-07
-8.6423e-06
-9.62718e-07
-1.25448e-05
-1.42938e-06
-2.00311e-05
-2.23336e-05
8.04757e-07
2.09029e-06
1.9505e-06
6.7819e-06
2.99195e-06
9.53411e-06
3.96458e-06
1.06021e-05
4.84111e-06
1.05002e-05
5.55531e-06
9.57447e-06
6.06784e-06
8.15748e-06
6.38168e-06
6.53233e-06
6.51815e-06
4.88495e-06
6.49596e-06
3.29771e-06
6.31425e-06
1.79251e-06
5.96896e-06
3.52866e-07
5.42985e-06
-1.09906e-06
4.7023e-06
-2.55816e-06
3.77829e-06
-4.02569e-06
2.68628e-06
-5.55245e-06
1.38481e-06
-7.34083e-06
-1.57678e-07
-1.10023e-05
-9.1553e-07
-1.92733e-05
-2.32492e-05
5.76406e-07
1.51388e-06
1.75637e-06
5.60194e-06
3.09345e-06
8.19702e-06
4.44351e-06
9.25208e-06
5.70912e-06
9.23455e-06
6.7916e-06
8.49199e-06
7.62543e-06
7.32365e-06
8.19797e-06
5.9598e-06
8.52192e-06
4.56099e-06
8.61466e-06
3.20497e-06
8.48323e-06
1.92394e-06
8.1253e-06
7.10798e-07
7.4972e-06
-4.7096e-07
6.61573e-06
-1.67668e-06
5.46794e-06
-2.87791e-06
4.0947e-06
-4.17921e-06
2.56679e-06
-5.81292e-06
9.53298e-07
-9.38879e-06
-1.46145e-07
-1.81738e-05
-2.33953e-05
1.51481e-07
1.3624e-06
1.03766e-06
4.71576e-06
2.51359e-06
6.72109e-06
4.2345e-06
7.53116e-06
5.95564e-06
7.51341e-06
7.48953e-06
6.9581e-06
8.73349e-06
6.07969e-06
9.65782e-06
5.03547e-06
1.02578e-05
3.96099e-06
1.05455e-05
2.91724e-06
1.05272e-05
1.94229e-06
1.02087e-05
1.02931e-06
9.54577e-06
1.91951e-07
8.5577e-06
-6.88617e-07
7.23624e-06
-1.55644e-06
5.63242e-06
-2.57539e-06
3.90583e-06
-4.08633e-06
2.23718e-06
-7.72014e-06
6.51775e-07
-1.65884e-05
-2.27435e-05
-5.16859e-07
1.87926e-06
2.00052e-07
3.99885e-06
1.75447e-06
5.16667e-06
3.8169e-06
5.46873e-06
5.97143e-06
5.35889e-06
7.93197e-06
4.99755e-06
9.56201e-06
4.44965e-06
1.08203e-05
3.7772e-06
1.16894e-05
3.09185e-06
1.21862e-05
2.42049e-06
1.23146e-05
1.81387e-06
1.20948e-05
1.2491e-06
1.15496e-05
7.37158e-07
1.06515e-05
2.09489e-07
9.4047e-06
-3.09645e-07
7.88045e-06
-1.05115e-06
6.26449e-06
-2.47036e-06
4.45507e-06
-5.91072e-06
2.05492e-06
-1.41883e-05
-2.06886e-05
-4.17893e-06
6.05819e-06
-3.64197e-06
3.4619e-06
-1.24776e-06
2.77245e-06
1.54968e-06
2.6713e-06
4.28821e-06
2.62036e-06
6.8218e-06
2.46396e-06
9.03761e-06
2.23384e-06
1.08757e-05
1.93909e-06
1.2318e-05
1.64952e-06
1.33918e-05
1.34674e-06
1.41142e-05
1.09148e-06
1.45298e-05
8.33453e-07
1.46269e-05
6.40092e-07
1.44151e-05
4.21265e-07
1.38876e-05
2.17894e-07
1.30597e-05
-2.23281e-07
1.19207e-05
-1.33138e-06
1.01116e-05
-4.10156e-06
5.63753e-06
-9.71421e-06
-1.50511e-05
6.05819e-06
9.52008e-06
1.22925e-05
1.49638e-05
1.75842e-05
2.00482e-05
2.2282e-05
2.42211e-05
2.58706e-05
2.72173e-05
2.83088e-05
2.91423e-05
2.97824e-05
3.02036e-05
3.04215e-05
3.01982e-05
2.88669e-05
2.47653e-05
1.50511e-05
)
;

boundaryField
{
    movingWall
    {
        type            calculated;
        value           uniform 0;
    }
    fixedWalls
    {
        type            calculated;
        value           uniform 0;
    }
    frontAndBack
    {
        type            empty;
        value           nonuniform List<scalar> 0();
    }
}


// ************************************************************************* //
