/*--------------------------------*- C++ -*----------------------------------*\
| =========                 |                                                 |
| \\      /  F ield         | OpenFOAM: The Open Source CFD Toolbox           |
|  \\    /   O peration     | Version:  2212                                  |
|   \\  /    A nd           | Website:  www.openfoam.com                      |
|    \\/     M anipulation  |                                                 |
\*---------------------------------------------------------------------------*/
FoamFile
{
    version     2.0;
    format      ascii;
    arch        "LSB;label=32;scalar=64";
    class       surfaceScalarField;
    location    "1";
    object      phi;
}
// * * * * * * * * * * * * * * * * * * * * * * * * * * * * * * * * * * * * * //

dimensions      [0 3 -1 0 0 0 0];

oriented        oriented;

internalField   nonuniform List<scalar> 
760
(
-2.38385e-08
2.38385e-08
-1.14661e-07
9.08225e-08
-2.35823e-07
1.21162e-07
-3.73746e-07
1.37922e-07
-5.34258e-07
1.60512e-07
-7.28513e-07
1.94255e-07
-9.64323e-07
2.3581e-07
-1.23784e-06
2.73521e-07
-1.52377e-06
2.85926e-07
-1.76998e-06
2.46206e-07
-1.90605e-06
1.3607e-07
-1.8614e-06
-4.46445e-08
-1.58485e-06
-2.76554e-07
-1.11086e-06
-4.73987e-07
-5.37148e-07
-5.73712e-07
-1.90333e-08
-5.18114e-07
3.01248e-07
-3.20281e-07
3.3509e-07
-3.38417e-08
1.64781e-07
1.70308e-07
1.64782e-07
-1.34089e-07
1.57927e-07
-4.04004e-07
3.60738e-07
-7.35638e-07
4.52796e-07
-1.10891e-06
5.11198e-07
-1.52862e-06
5.80216e-07
-2.00164e-06
6.67276e-07
-2.52184e-06
7.56009e-07
-3.05888e-06
8.1056e-07
-3.5521e-06
7.7915e-07
-3.91594e-06
6.10039e-07
-4.06252e-06
2.82652e-07
-3.91952e-06
-1.87647e-07
-3.43756e-06
-7.58514e-07
-2.64393e-06
-1.26762e-06
-1.65207e-06
-1.56557e-06
-6.60478e-07
-1.50971e-06
6.5872e-08
-1.04663e-06
3.53401e-07
-3.2137e-07
2.24546e-07
2.99163e-07
3.89327e-07
-2.31815e-07
3.89742e-07
-6.48292e-07
7.77215e-07
-1.14314e-06
9.4764e-07
-1.6909e-06
1.05897e-06
-2.29254e-06
1.18185e-06
-2.94721e-06
1.32194e-06
-3.63965e-06
1.44845e-06
-4.33611e-06
1.50703e-06
-4.98286e-06
1.42589e-06
-5.50341e-06
1.13059e-06
-5.80161e-06
5.80859e-07
-5.78865e-06
-2.00613e-07
-5.36393e-06
-1.18323e-06
-4.52026e-06
-2.11128e-06
-3.31839e-06
-2.76744e-06
-1.92596e-06
-2.90214e-06
-6.51454e-07
-2.32113e-06
1.0935e-07
-1.08217e-06
2.02036e-07
2.06478e-07
5.91363e-07
-2.99895e-07
6.89637e-07
-8.19293e-07
1.29661e-06
-1.42641e-06
1.55476e-06
-2.09152e-06
1.72407e-06
-2.81528e-06
1.90561e-06
-3.60006e-06
2.10673e-06
-4.44362e-06
2.29201e-06
-5.33827e-06
2.40168e-06
-6.25545e-06
2.34307e-06
-7.10948e-06
1.98461e-06
-7.73703e-06
1.20841e-06
-7.99275e-06
5.51018e-08
-7.75922e-06
-1.41676e-06
-7.00421e-06
-2.86629e-06
-5.71838e-06
-4.05328e-06
-3.97359e-06
-4.64693e-06
-2.0284e-06
-4.26633e-06
-4.41406e-07
-2.66917e-06
1.51917e-07
-3.86845e-07
7.4328e-07
-3.35908e-07
1.02555e-06
-9.13094e-07
1.8738e-06
-1.58593e-06
2.2276e-06
-2.32395e-06
2.46208e-06
-3.13482e-06
2.71649e-06
-4.03827e-06
3.01018e-06
-5.06059e-06
3.31432e-06
-6.21892e-06
3.56001e-06
-7.471e-06
3.59516e-06
-8.66444e-06
3.17805e-06
-9.57708e-06
2.12105e-06
-9.99663e-06
4.74657e-07
-9.96179e-06
-1.4516e-06
-9.4147e-06
-3.41338e-06
-8.28401e-06
-5.18397e-06
-6.49371e-06
-6.43722e-06
-4.08214e-06
-6.67789e-06
-1.51737e-06
-5.23394e-06
-5.03539e-09
-1.89918e-06
7.38245e-07
-3.39918e-07
1.36546e-06
-9.31853e-07
2.46573e-06
-1.62827e-06
2.92402e-06
-2.40075e-06
3.23456e-06
-3.26773e-06
3.58348e-06
-4.26877e-06
4.01122e-06
-5.44753e-06
4.49309e-06
-6.80693e-06
4.91941e-06
-8.2393e-06
5.02752e-06
-9.52192e-06
4.46067e-06
-1.04448e-05
3.04393e-06
-1.0916e-05
9.45903e-07
-1.09935e-05
-1.37416e-06
-1.07201e-05
-3.6868e-06
-9.99156e-06
-5.91247e-06
-8.61639e-06
-7.8124e-06
-6.35247e-06
-8.94181e-06
-3.24548e-06
-8.34093e-06
-4.5987e-07
-4.68479e-06
2.78374e-07
-3.13325e-07
1.67879e-06
-8.78729e-07
3.03114e-06
-1.55669e-06
3.60198e-06
-2.31963e-06
3.9975e-06
-3.19115e-06
4.45499e-06
-4.21547e-06
5.03554e-06
-5.42182e-06
5.69944e-06
-6.76354e-06
6.26112e-06
-8.07614e-06
6.34013e-06
-9.14723e-06
5.53176e-06
-9.86184e-06
3.75854e-06
-1.0262e-05
1.34606e-06
-1.04002e-05
-1.23593e-06
-1.03511e-05
-3.73592e-06
-1.0088e-05
-6.17553e-06
-9.40993e-06
-8.49052e-06
-7.91109e-06
-1.04406e-05
-5.15784e-06
-1.10942e-05
-1.44369e-06
-8.39894e-06
-1.16531e-06
-2.59e-07
1.93779e-06
-7.58064e-07
3.5302e-06
-1.37252e-06
4.21643e-06
-2.06957e-06
4.69455e-06
-2.86454e-06
5.24996e-06
-3.78664e-06
5.95764e-06
-4.83579e-06
6.74859e-06
-5.93409e-06
7.35942e-06
-6.92658e-06
7.33262e-06
-7.67437e-06
6.27955e-06
-8.14313e-06
4.2273e-06
-8.40779e-06
1.61073e-06
-8.53678e-06
-1.10694e-06
-8.58796e-06
-3.68475e-06
-8.63497e-06
-6.12852e-06
-8.59698e-06
-8.52851e-06
-8.05561e-06
-1.0982e-05
-6.2562e-06
-1.28936e-05
-2.68094e-06
-1.19742e-05
-3.84625e-06
-1.82818e-07
2.12061e-06
-5.80298e-07
3.92768e-06
-1.08766e-06
4.72379e-06
-1.66053e-06
5.26743e-06
-2.29474e-06
5.88416e-06
-2.99687e-06
6.65978e-06
-3.75029e-06
7.50201e-06
-4.49002e-06
8.09915e-06
-5.12346e-06
7.96607e-06
-5.59649e-06
6.75258e-06
-5.9158e-06
4.5466e-06
-6.12126e-06
1.81619e-06
-6.25113e-06
-9.77069e-07
-6.34146e-06
-3.59443e-06
-6.50127e-06
-5.96871e-06
-6.78961e-06
-8.24017e-06
-6.93646e-06
-1.08352e-05
-6.14039e-06
-1.36897e-05
-3.57336e-06
-1.45412e-05
-7.41961e-06
-9.50695e-08
2.21568e-06
-3.65807e-07
4.19842e-06
-7.32843e-07
5.09083e-06
-1.13782e-06
5.67241e-06
-1.55391e-06
6.30025e-06
-1.96652e-06
7.07239e-06
-2.36009e-06
7.89558e-06
-2.71382e-06
8.45287e-06
-3.01511e-06
8.26736e-06
-3.28076e-06
7.01823e-06
-3.5322e-06
4.79805e-06
-3.77024e-06
2.05423e-06
-3.98092e-06
-7.66392e-07
-4.15853e-06
-3.41682e-06
-4.38807e-06
-5.73917e-06
-4.80416e-06
-7.82408e-06
-5.34521e-06
-1.02941e-05
-5.29572e-06
-1.37392e-05
-3.55597e-06
-1.6281e-05
-1.09756e-05
-7.20695e-09
2.22288e-06
-1.42609e-07
4.33382e-06
-3.54684e-07
5.3029e-06
-5.72008e-07
5.88973e-06
-7.49951e-07
6.4782e-06
-8.53686e-07
7.17612e-06
-8.8062e-07
7.92251e-06
-8.59813e-07
8.43207e-06
-8.57726e-07
8.26527e-06
-9.25197e-07
7.0857e-06
-1.0873e-06
4.96015e-06
-1.3413e-06
2.30823e-06
-1.66208e-06
-4.45605e-07
-1.98061e-06
-3.09829e-06
-2.33892e-06
-5.38086e-06
-2.87824e-06
-7.28476e-06
-3.68947e-06
-9.48288e-06
-4.18341e-06
-1.32452e-05
-3.07815e-06
-1.73862e-05
-1.40537e-05
6.36493e-08
2.15923e-06
5.68658e-08
4.34061e-06
2.36555e-09
5.3574e-06
-3.20926e-08
5.92419e-06
2.33983e-08
6.42271e-06
1.91837e-07
7.00768e-06
4.8889e-07
7.62546e-06
8.67955e-07
8.053e-06
1.21116e-06
7.92206e-06
1.39527e-06
6.90159e-06
1.35789e-06
4.99754e-06
1.12269e-06
2.54342e-06
6.99268e-07
-2.21796e-08
2.31843e-07
-2.63087e-06
-3.58178e-07
-4.79084e-06
-1.12237e-06
-6.52057e-06
-2.16518e-06
-8.44007e-06
-3.07818e-06
-1.23322e-05
-2.5513e-06
-1.79131e-05
-1.6605e-05
1.05888e-07
2.05335e-06
1.93031e-07
4.25346e-06
2.63296e-07
5.28714e-06
3.83632e-07
5.80385e-06
6.14007e-07
6.19233e-06
1.007e-06
6.61469e-06
1.57256e-06
7.05991e-06
2.25608e-06
7.36949e-06
2.91683e-06
7.2613e-06
3.37244e-06
6.44598e-06
3.51132e-06
4.85865e-06
3.32467e-06
2.73008e-06
2.88813e-06
4.1436e-07
2.20365e-06
-1.94639e-06
1.38107e-06
-3.96825e-06
3.82718e-07
-5.52222e-06
-8.69651e-07
-7.1877e-06
-2.08565e-06
-1.11162e-05
-2.03656e-06
-1.79622e-05
-1.86416e-05
1.10735e-07
1.94261e-06
2.51353e-07
4.11284e-06
4.19311e-07
5.11918e-06
6.63798e-07
5.55936e-06
1.03727e-06
5.81886e-06
1.58219e-06
6.06977e-06
2.31147e-06
6.33063e-06
3.17953e-06
6.50142e-06
4.05401e-06
6.38682e-06
4.73943e-06
5.76056e-06
5.07857e-06
4.51952e-06
5.02279e-06
2.78585e-06
4.60822e-06
8.28929e-07
3.83084e-06
-1.16902e-06
2.81386e-06
-2.95127e-06
1.61847e-06
-4.32684e-06
1.82921e-07
-5.75215e-06
-1.2533e-06
-9.67999e-06
-1.58663e-06
-1.76289e-05
-2.02282e-05
6.74567e-08
1.87515e-06
2.03645e-07
3.97666e-06
4.26568e-07
4.89626e-06
7.67145e-07
5.21879e-06
1.24944e-06
5.33657e-06
1.89406e-06
5.42515e-06
2.70695e-06
5.51774e-06
3.65269e-06
5.55568e-06
4.62611e-06
5.41341e-06
5.45257e-06
4.9341e-06
5.95505e-06
4.01704e-06
6.03764e-06
2.70326e-06
5.69672e-06
1.16985e-06
4.92566e-06
-3.97952e-07
3.82331e-06
-1.84892e-06
2.50593e-06
-3.00946e-06
9.94282e-07
-4.2405e-06
-5.32591e-07
-8.15311e-06
-1.16442e-06
-1.6997e-05
-2.13926e-05
-2.82684e-08
1.90342e-06
6.05628e-08
3.88783e-06
3.04139e-07
4.65268e-06
7.14952e-07
4.80797e-06
1.27484e-06
4.77668e-06
1.98047e-06
4.71951e-06
2.82492e-06
4.67329e-06
3.77723e-06
4.60336e-06
4.7583e-06
4.43233e-06
5.63099e-06
4.06142e-06
6.23035e-06
3.41768e-06
6.43209e-06
2.50151e-06
6.18331e-06
1.41863e-06
5.4998e-06
2.85562e-07
4.41879e-06
-7.67915e-07
3.1008e-06
-1.69147e-06
1.64768e-06
-2.78738e-06
8.18321e-08
-6.58727e-06
-6.33218e-07
-1.6282e-05
-2.20259e-05
-2.64246e-07
2.16767e-06
-3.90362e-07
4.01394e-06
-1.07318e-07
4.36964e-06
4.30151e-07
4.2705e-06
1.11308e-06
4.09375e-06
1.90121e-06
3.93138e-06
2.77772e-06
3.79679e-06
3.71935e-06
3.66173e-06
4.66703e-06
3.48466e-06
5.52366e-06
3.20479e-06
6.15219e-06
2.78915e-06
6.43712e-06
2.21658e-06
6.29899e-06
1.55676e-06
5.72831e-06
8.56243e-07
4.76821e-06
1.92187e-07
3.5904e-06
-5.13659e-07
2.39331e-06
-1.59029e-06
1.23321e-06
-5.42716e-06
2.00247e-07
-1.5249e-05
-2.18256e-05
-3.61255e-07
2.52892e-06
-5.74048e-07
4.22673e-06
-3.76241e-07
4.17183e-06
1.27766e-07
3.7665e-06
8.23985e-07
3.39753e-06
1.62752e-06
3.12784e-06
2.50329e-06
2.92101e-06
3.42971e-06
2.73532e-06
4.34965e-06
2.56472e-06
5.19915e-06
2.35528e-06
5.87086e-06
2.11745e-06
6.28493e-06
1.80251e-06
6.36427e-06
1.47741e-06
6.10557e-06
1.11494e-06
5.52188e-06
7.75881e-07
4.80398e-06
2.04245e-07
4.13674e-06
-9.23052e-07
3.25039e-06
-4.54081e-06
1.5572e-06
-1.35559e-05
-2.02684e-05
-3.93081e-06
6.45973e-06
-3.63614e-06
3.93207e-06
-2.19377e-06
2.72946e-06
-7.11446e-07
2.28417e-06
6.81403e-07
2.00469e-06
2.03405e-06
1.7752e-06
3.35721e-06
1.59785e-06
4.65354e-06
1.43899e-06
5.89377e-06
1.32448e-06
7.05504e-06
1.19401e-06
8.07947e-06
1.09302e-06
8.92876e-06
9.53224e-07
9.54589e-06
8.60273e-07
9.94016e-06
7.20678e-07
1.01237e-05
5.92324e-07
1.00749e-05
2.53022e-07
9.85622e-06
-7.04339e-07
9.06631e-06
-3.7509e-06
5.21747e-06
-9.70701e-06
-1.50509e-05
6.45973e-06
1.03918e-05
1.31213e-05
1.54054e-05
1.74101e-05
1.91853e-05
2.07832e-05
2.22222e-05
2.35466e-05
2.47406e-05
2.58337e-05
2.67869e-05
2.76472e-05
2.83678e-05
2.89602e-05
2.92132e-05
2.85089e-05
2.4758e-05
1.50509e-05
)
;

boundaryField
{
    movingWall
    {
        type            calculated;
        value           uniform 0;
    }
    fixedWalls
    {
        type            calculated;
        value           uniform 0;
    }
    frontAndBack
    {
        type            empty;
        value           nonuniform List<scalar> 0();
    }
}


// ************************************************************************* //
