/*--------------------------------*- C++ -*----------------------------------*\
| =========                 |                                                 |
| \\      /  F ield         | OpenFOAM: The Open Source CFD Toolbox           |
|  \\    /   O peration     | Version:  2212                                  |
|   \\  /    A nd           | Website:  www.openfoam.com                      |
|    \\/     M anipulation  |                                                 |
\*---------------------------------------------------------------------------*/
FoamFile
{
    version     2.0;
    format      ascii;
    arch        "LSB;label=32;scalar=64";
    class       volScalarField;
    location    "1";
    object      T;
}
// * * * * * * * * * * * * * * * * * * * * * * * * * * * * * * * * * * * * * //

dimensions      [0 0 0 1 0 0 0];

internalField   nonuniform List<scalar> 
400
(
3.16121e-07
1.65873e-06
8.94236e-06
4.18839e-05
0.000168586
0.000585199
0.00176175
0.00461848
0.0105528
0.0209648
0.0360778
0.0537674
0.0698136
0.0794956
0.0802326
0.0710785
0.0537327
0.0333561
0.0173676
0.0095464
1.05832e-06
6.10711e-06
3.47506e-05
0.000167002
0.000673066
0.00229066
0.0066413
0.0165179
0.0353708
0.0652225
0.103525
0.142383
0.172633
0.187491
0.184775
0.162854
0.123168
0.0752545
0.0373968
0.019778
3.50594e-06
2.13873e-05
0.000124922
0.000602079
0.00238656
0.00785614
0.0217083
0.0507547
0.100774
0.169919
0.243912
0.303587
0.340436
0.354663
0.347836
0.316156
0.254095
0.165929
0.0841601
0.044497
9.60902e-06
6.03627e-05
0.00035543
0.00169536
0.00654778
0.0207047
0.0541538
0.117793
0.213016
0.319602
0.402107
0.444387
0.46368
0.472405
0.47122
0.453682
0.402249
0.301147
0.168136
0.0911853
2.18137e-05
0.000138585
0.000813915
0.00381952
0.0143232
0.0433307
0.106376
0.211681
0.33941
0.439008
0.475586
0.47623
0.481223
0.489932
0.504474
0.519536
0.512787
0.453243
0.302642
0.168978
4.16105e-05
0.000263891
0.001535
0.0070601
0.0256199
0.0737255
0.168163
0.301819
0.423363
0.471357
0.451742
0.430383
0.428198
0.432527
0.458068
0.499098
0.544324
0.562161
0.476669
0.285329
6.72849e-05
0.000421519
0.00241609
0.0108724
0.0381677
0.10449
0.221732
0.361023
0.44966
0.443144
0.391509
0.364982
0.355808
0.352374
0.372182
0.415787
0.489851
0.574748
0.60448
0.448077
9.27754e-05
0.000569008
0.00320302
0.0141203
0.0482226
0.126932
0.255007
0.38669
0.443039
0.403398
0.343884
0.32448
0.318382
0.309793
0.310902
0.333357
0.399997
0.510753
0.624246
0.628423
0.000109934
0.000655469
0.00361845
0.0156985
0.0527435
0.136062
0.26616
0.390025
0.429682
0.379138
0.323935
0.316535
0.322996
0.317373
0.30185
0.293723
0.331687
0.436504
0.576572
0.680949
0.000113364
0.000653413
0.00353253
0.0151554
0.0507225
0.131004
0.257297
0.378842
0.419679
0.37364
0.322613
0.319367
0.335774
0.338647
0.317192
0.283874
0.288578
0.379966
0.532155
0.648603
0.000103226
0.000572415
0.00302678
0.0128767
0.0433152
0.113957
0.23083
0.35397
0.4108
0.38235
0.335541
0.326724
0.343418
0.353406
0.334547
0.286875
0.259438
0.330555
0.499447
0.647455
8.5766e-05
0.00045531
0.002325
0.00973159
0.0328615
0.0887045
0.188635
0.310063
0.391349
0.395884
0.363253
0.347675
0.355135
0.362796
0.344816
0.291904
0.24248
0.290869
0.464953
0.63798
6.25692e-05
0.000316587
0.00160927
0.00667903
0.0225307
0.0620264
0.138226
0.245271
0.342706
0.386649
0.383971
0.37299
0.370331
0.366203
0.340922
0.285074
0.225268
0.259271
0.442863
0.638797
5.85107e-05
0.000282135
0.00115729
0.00433001
0.0141708
0.0391259
0.0900631
0.170536
0.262186
0.330255
0.359817
0.365587
0.362119
0.349279
0.317853
0.263881
0.20386
0.228888
0.420114
0.638058
-1.30122e-05
-5.15435e-05
0.000470895
0.00252458
0.00836117
0.0227608
0.0528298
0.104155
0.172262
0.238343
0.283683
0.305608
0.30953
0.298325
0.270017
0.22627
0.177593
0.203742
0.406365
0.642595
0.000240132
0.000962557
0.00117559
0.00188193
0.00475516
0.0122163
0.0280259
0.0562115
0.097441
0.144794
0.18613
0.213471
0.225126
0.222367
0.205792
0.178929
0.148
0.179627
0.394225
0.647663
-0.00174688
-0.00341809
-0.00185997
0.000232062
0.00271023
0.00690789
0.0147182
0.0283627
0.0492343
0.0758425
0.103193
0.125466
0.139434
0.144461
0.141312
0.133017
0.123527
0.162991
0.392347
0.657918
0.0180609
0.012493
0.00703633
0.00293189
0.00110868
0.00115411
0.00346466
0.00867674
0.01757
0.03009
0.0450109
0.0602281
0.0737819
0.0854551
0.0949831
0.105506
0.120186
0.174597
0.409539
0.673952
-0.156162
-0.0325229
-0.0214524
-0.00864768
0.00252725
0.0143771
0.0259214
0.0384591
0.0502493
0.0644106
0.0780433
0.094939
0.110719
0.129227
0.147175
0.168867
0.20161
0.267071
0.466953
0.701842
0.185307
0.267636
0.320916
0.359809
0.389039
0.414202
0.434496
0.454096
0.469722
0.486314
0.499206
0.514491
0.52597
0.540858
0.55138
0.567191
0.5798
0.609753
0.664452
0.771581
)
;

boundaryField
{
    movingWall
    {
        type            fixedValue;
        value           uniform 1;
    }
    fixedWalls
    {
        type            zeroGradient;
    }
    frontAndBack
    {
        type            empty;
    }
}


// ************************************************************************* //
