/*--------------------------------*- C++ -*----------------------------------*\
| =========                 |                                                 |
| \\      /  F ield         | OpenFOAM: The Open Source CFD Toolbox           |
|  \\    /   O peration     | Version:  2212                                  |
|   \\  /    A nd           | Website:  www.openfoam.com                      |
|    \\/     M anipulation  |                                                 |
\*---------------------------------------------------------------------------*/
FoamFile
{
    version     2.0;
    format      ascii;
    arch        "LSB;label=32;scalar=64";
    class       surfaceScalarField;
    location    "17.4";
    object      phi;
}
// * * * * * * * * * * * * * * * * * * * * * * * * * * * * * * * * * * * * * //

dimensions      [0 3 -1 0 0 0 0];

oriented        oriented;

internalField   nonuniform List<scalar> 
760
(
1.56104e-07
-1.56108e-07
2.93643e-07
-1.37538e-07
3.10004e-07
-1.63611e-08
1.83694e-07
1.2631e-07
-1.20297e-07
3.03991e-07
-6.65923e-07
5.45626e-07
-1.48528e-06
8.19354e-07
-2.49088e-06
1.0056e-06
-3.48037e-06
9.89493e-07
-4.22037e-06
7.39998e-07
-4.544e-06
3.23623e-07
-4.35366e-06
-1.90336e-07
-3.59375e-06
-7.59909e-07
-2.37896e-06
-1.21479e-06
-9.39979e-07
-1.43898e-06
3.47796e-07
-1.28777e-06
1.08998e-06
-7.42179e-07
1.0331e-06
5.68748e-08
4.61002e-07
5.72098e-07
4.61002e-07
1.25062e-07
-2.8117e-07
7.46268e-08
-8.71033e-08
-2.97009e-07
3.55275e-07
-1.0789e-06
9.08201e-07
-2.31595e-06
1.54104e-06
-3.92744e-06
2.15712e-06
-5.66237e-06
2.55428e-06
-7.20712e-06
2.55035e-06
-8.33703e-06
2.1194e-06
-8.94237e-06
1.34534e-06
-8.97629e-06
3.57538e-07
-8.41627e-06
-7.50354e-07
-7.29367e-06
-1.88251e-06
-5.64205e-06
-2.86641e-06
-3.60581e-06
-3.47522e-06
-1.49021e-06
-3.40337e-06
1.78763e-07
-2.41115e-06
8.59013e-07
-6.23374e-07
5.25718e-07
9.05393e-07
9.8672e-07
-1.27591e-07
-1.53579e-07
-6.33921e-07
4.19226e-07
-1.62494e-06
1.34629e-06
-3.14151e-06
2.42478e-06
-5.05761e-06
3.45713e-06
-7.0735e-06
4.17301e-06
-8.87361e-06
4.3544e-06
-1.02779e-05
3.95463e-06
-1.12347e-05
3.0762e-06
-1.17362e-05
1.8469e-06
-1.17303e-05
3.51575e-07
-1.12713e-05
-1.20928e-06
-1.03386e-05
-2.81523e-06
-8.87794e-06
-4.32709e-06
-6.86965e-06
-5.48352e-06
-4.40325e-06
-5.86977e-06
-1.87874e-06
-4.93566e-06
-8.63848e-08
-2.41573e-06
2.94696e-07
5.24312e-07
1.28142e-06
-5.0053e-07
3.46951e-07
-1.56001e-06
1.47871e-06
-3.11956e-06
2.90584e-06
-5.08151e-06
4.38673e-06
-7.18546e-06
5.56108e-06
-9.1235e-06
6.11106e-06
-1.06934e-05
5.92428e-06
-1.18526e-05
5.11386e-06
-1.26293e-05
3.85284e-06
-1.30579e-05
2.27556e-06
-1.3123e-05
4.16617e-07
-1.28834e-05
-1.4488e-06
-1.23006e-05
-3.39807e-06
-1.12727e-05
-5.35503e-06
-9.66892e-06
-7.08726e-06
-7.36474e-06
-8.17395e-06
-4.39882e-06
-7.90158e-06
-1.37807e-06
-5.43648e-06
1.20741e-07
-9.74496e-07
1.40216e-06
-8.61969e-07
1.20892e-06
-2.36178e-06
2.97852e-06
-4.23293e-06
4.77699e-06
-6.28037e-06
6.43416e-06
-8.22285e-06
7.50356e-06
-9.83765e-06
7.72585e-06
-1.10481e-05
7.13474e-06
-1.18808e-05
5.94651e-06
-1.23974e-05
4.36947e-06
-1.26706e-05
2.54877e-06
-1.27912e-05
5.37205e-07
-1.27455e-05
-1.49446e-06
-1.25248e-05
-3.61876e-06
-1.20502e-05
-5.82965e-06
-1.11355e-05
-8.00201e-06
-9.49267e-06
-9.81675e-06
-6.82235e-06
-1.05719e-05
-3.22305e-06
-9.03578e-06
-2.61164e-07
-3.93638e-06
1.14099e-06
-1.08714e-06
2.29606e-06
-2.78475e-06
4.67613e-06
-4.67863e-06
6.67087e-06
-6.53678e-06
8.29232e-06
-8.13485e-06
9.10162e-06
-9.34182e-06
8.93282e-06
-1.01537e-05
7.94661e-06
-1.06356e-05
6.42841e-06
-1.08777e-05
4.61159e-06
-1.09797e-05
2.65077e-06
-1.10629e-05
6.20419e-07
-1.11135e-05
-1.44393e-06
-1.11476e-05
-3.58467e-06
-1.11364e-05
-5.84084e-06
-1.09266e-05
-8.21178e-06
-1.01913e-05
-1.0552e-05
-8.43621e-06
-1.2327e-05
-5.24514e-06
-1.22269e-05
-1.15868e-06
-8.02283e-06
-1.76881e-08
-1.11127e-06
3.40734e-06
-2.75945e-06
6.32431e-06
-4.45752e-06
8.36894e-06
-5.99364e-06
9.82844e-06
-7.20772e-06
1.03157e-05
-8.03744e-06
9.76255e-06
-8.52059e-06
8.42976e-06
-8.74414e-06
6.65197e-06
-8.81155e-06
4.67899e-06
-8.8195e-06
2.65872e-06
-8.85006e-06
6.50981e-07
-8.92139e-06
-1.3726e-06
-9.05346e-06
-3.4526e-06
-9.25794e-06
-5.63636e-06
-9.47887e-06
-7.99085e-06
-9.48551e-06
-1.05454e-05
-8.75917e-06
-1.30533e-05
-6.54136e-06
-1.44447e-05
-2.425e-06
-1.21392e-05
-2.44269e-06
-9.36655e-07
4.34399e-06
-2.34906e-06
7.73671e-06
-3.73707e-06
9.75695e-06
-4.91717e-06
1.10085e-05
-5.78843e-06
1.1187e-05
-6.33407e-06
1.03082e-05
-6.61128e-06
8.70698e-06
-6.71107e-06
6.75176e-06
-6.72925e-06
4.69718e-06
-6.7385e-06
2.66797e-06
-6.77415e-06
6.86623e-07
-6.85295e-06
-1.29379e-06
-6.99583e-06
-3.30971e-06
-7.23345e-06
-5.39875e-06
-7.58341e-06
-7.64089e-06
-7.95577e-06
-1.0173e-05
-7.9415e-06
-1.30676e-05
-6.72265e-06
-1.56635e-05
-3.58991e-06
-1.52719e-05
-6.0326e-06
-6.26084e-07
4.97007e-06
-1.6898e-06
8.80043e-06
-2.72409e-06
1.07912e-05
-3.56432e-06
1.18488e-05
-4.15502e-06
1.17777e-05
-4.50638e-06
1.06595e-05
-4.67733e-06
8.87792e-06
-4.74619e-06
6.82062e-06
-4.78505e-06
4.73604e-06
-4.83711e-06
2.72003e-06
-4.91217e-06
7.6168e-07
-5.01638e-06
-1.18958e-06
-5.15948e-06
-3.16661e-06
-5.37e-06
-5.18823e-06
-5.70312e-06
-7.30777e-06
-6.17303e-06
-9.70311e-06
-6.56311e-06
-1.26775e-05
-6.133e-06
-1.60936e-05
-3.92715e-06
-1.74778e-05
-9.95975e-06
-2.33284e-07
5.20336e-06
-8.95059e-07
9.4622e-06
-1.56764e-06
1.14638e-05
-2.09821e-06
1.23793e-05
-2.45912e-06
1.21386e-05
-2.67468e-06
1.08751e-05
-2.79311e-06
8.99634e-06
-2.86758e-06
6.89509e-06
-2.94254e-06
4.811e-06
-3.0398e-06
2.81729e-06
-3.16205e-06
8.83932e-07
-3.30877e-06
-1.04287e-06
-3.47998e-06
-2.9954e-06
-3.68771e-06
-4.9805e-06
-3.98229e-06
-7.01319e-06
-4.44619e-06
-9.23921e-06
-5.02811e-06
-1.20956e-05
-5.12741e-06
-1.59943e-05
-3.56078e-06
-1.90444e-05
-1.35205e-05
1.63764e-07
5.03959e-06
-7.0468e-08
9.69643e-06
-4.03953e-07
1.17973e-05
-6.555e-07
1.26309e-05
-8.11048e-07
1.22941e-05
-9.01736e-07
1.09658e-05
-9.66921e-07
9.06153e-06
-1.03845e-06
6.96662e-06
-1.13286e-06
4.90541e-06
-1.25791e-06
2.94233e-06
-1.41617e-06
1.0422e-06
-1.60978e-06
-8.49259e-07
-1.83714e-06
-2.76804e-06
-2.09586e-06
-4.72177e-06
-2.4131e-06
-6.69595e-06
-2.88021e-06
-8.7721e-06
-3.56279e-06
-1.1413e-05
-4.02717e-06
-1.553e-05
-3.02688e-06
-2.00447e-05
-1.65474e-05
5.02496e-07
4.5371e-06
7.00738e-07
9.49819e-06
7.4414e-07
1.17539e-05
7.79891e-07
1.25951e-05
8.24852e-07
1.22492e-05
8.53724e-07
1.09369e-05
8.46876e-07
9.06838e-06
7.96123e-07
7.01737e-06
7.02258e-07
4.99928e-06
5.66969e-07
3.07762e-06
3.85015e-07
1.22415e-06
1.50206e-07
-6.1445e-07
-1.38992e-07
-2.47884e-06
-4.89217e-07
-4.37155e-06
-9.03969e-07
-6.2812e-06
-1.42658e-06
-8.24949e-06
-2.20456e-06
-1.06351e-05
-2.95402e-06
-1.47805e-05
-2.46096e-06
-2.05377e-05
-1.90084e-05
7.59815e-07
3.77728e-06
1.35963e-06
8.89838e-06
1.75413e-06
1.13594e-05
2.08521e-06
1.22641e-05
2.35977e-06
1.19746e-05
2.54769e-06
1.0749e-05
2.64091e-06
8.97516e-06
2.65013e-06
7.00816e-06
2.58929e-06
5.06012e-06
2.46471e-06
3.20221e-06
2.26871e-06
1.42015e-06
1.98721e-06
-3.32948e-07
1.62089e-06
-2.11253e-06
1.16488e-06
-3.91554e-06
6.14965e-07
-5.73128e-06
-7.99207e-08
-7.5546e-06
-9.53668e-07
-9.76131e-06
-1.9168e-06
-1.38174e-05
-1.92413e-06
-2.05304e-05
-2.09325e-05
8.75583e-07
2.9017e-06
1.81911e-06
7.95485e-06
2.56421e-06
1.06143e-05
3.20833e-06
1.16199e-05
3.75895e-06
1.1424e-05
4.1729e-06
1.03351e-05
4.43435e-06
8.7137e-06
4.55727e-06
6.88524e-06
4.56443e-06
5.05296e-06
4.47077e-06
3.29587e-06
4.27405e-06
1.61687e-06
3.94158e-06
-4.79432e-10
3.4942e-06
-1.66514e-06
2.90627e-06
-3.32761e-06
2.1791e-06
-5.00411e-06
1.3319e-06
-6.70741e-06
2.74396e-07
-8.7038e-06
-9.53101e-07
-1.25899e-05
-1.42486e-06
-2.00587e-05
-2.23574e-05
8.11464e-07
2.09024e-06
1.9651e-06
6.80121e-06
3.0128e-06
9.5666e-06
3.99091e-06
1.06418e-05
4.87252e-06
1.05424e-05
5.59167e-06
9.61591e-06
6.10925e-06
8.19612e-06
6.4282e-06
6.56629e-06
6.5692e-06
4.91196e-06
6.55003e-06
3.31503e-06
6.36881e-06
1.7981e-06
6.02282e-06
3.45509e-07
5.47899e-06
-1.12131e-06
4.74486e-06
-2.59348e-06
3.81264e-06
-4.07189e-06
2.71139e-06
-5.60617e-06
1.40181e-06
-7.39422e-06
-1.48877e-07
-1.10392e-05
-9.08999e-07
-1.92985e-05
-2.32664e-05
5.81477e-07
1.50876e-06
1.77034e-06
5.61235e-06
3.11556e-06
8.22138e-06
4.4733e-06
9.28409e-06
5.74609e-06
9.26957e-06
6.8353e-06
8.52669e-06
7.67554e-06
7.35588e-06
8.25409e-06
5.98775e-06
8.58318e-06
4.58287e-06
8.67936e-06
3.21885e-06
8.54922e-06
1.92823e-06
8.18984e-06
7.04884e-07
7.55708e-06
-4.88548e-07
6.66841e-06
-1.70481e-06
5.51122e-06
-2.9147e-06
4.12657e-06
-4.22152e-06
2.58861e-06
-5.85626e-06
9.69162e-07
-9.41973e-06
-1.38881e-07
-1.81905e-05
-2.34053e-05
1.54345e-07
1.35441e-06
1.04874e-06
4.71796e-06
2.53361e-06
6.73651e-06
4.26377e-06
7.55394e-06
5.99383e-06
7.53951e-06
7.53602e-06
6.9845e-06
8.78763e-06
6.10426e-06
9.71884e-06
5.05654e-06
1.03246e-05
3.97708e-06
1.06163e-05
2.92718e-06
1.05997e-05
1.94481e-06
1.02804e-05
1.02422e-06
9.61187e-06
1.79968e-07
8.61687e-06
-7.09808e-07
7.28509e-06
-1.58292e-06
5.66879e-06
-2.60522e-06
3.92922e-06
-4.11669e-06
2.25077e-06
-7.74127e-06
6.56961e-07
-1.65967e-05
-2.27483e-05
-5.19162e-07
1.87358e-06
2.0374e-07
3.99506e-06
1.76796e-06
5.17229e-06
3.8416e-06
5.4803e-06
6.0074e-06
5.37371e-06
7.97832e-06
5.01359e-06
9.61771e-06
4.46487e-06
1.0884e-05
3.79029e-06
1.17595e-05
3.10154e-06
1.22604e-05
2.42629e-06
1.239e-05
1.81518e-06
1.21681e-05
1.24615e-06
1.16189e-05
7.29181e-07
1.07126e-05
1.96496e-07
9.45395e-06
-3.24301e-07
7.91685e-06
-1.06811e-06
6.28717e-06
-2.48701e-06
4.46687e-06
-5.92097e-06
2.05978e-06
-1.41896e-05
-2.06885e-05
-4.18159e-06
6.05517e-06
-3.64417e-06
3.45764e-06
-1.2438e-06
2.77191e-06
1.56272e-06
2.67378e-06
4.31136e-06
2.62506e-06
6.85504e-06
2.46991e-06
9.08003e-06
2.23988e-06
1.09258e-05
1.94451e-06
1.23737e-05
1.6536e-06
1.34508e-05
1.34928e-06
1.41738e-05
1.0921e-06
1.45878e-05
8.3224e-07
1.46801e-05
6.36874e-07
1.44597e-05
4.16872e-07
1.39228e-05
2.12625e-07
1.30852e-05
-2.30525e-07
1.19348e-05
-1.33662e-06
1.01167e-05
-4.10292e-06
5.6396e-06
-9.71246e-06
-1.50489e-05
6.05517e-06
9.51281e-06
1.22847e-05
1.49585e-05
1.75836e-05
2.00535e-05
2.22934e-05
2.42379e-05
2.58915e-05
2.72407e-05
2.83328e-05
2.91651e-05
2.9802e-05
3.02188e-05
3.04315e-05
3.02009e-05
2.88643e-05
2.47614e-05
1.50489e-05
)
;

boundaryField
{
    movingWall
    {
        type            calculated;
        value           uniform 0;
    }
    fixedWalls
    {
        type            calculated;
        value           uniform 0;
    }
    frontAndBack
    {
        type            empty;
        value           nonuniform List<scalar> 0();
    }
}


// ************************************************************************* //
