/*--------------------------------*- C++ -*----------------------------------*\
| =========                 |                                                 |
| \\      /  F ield         | OpenFOAM: The Open Source CFD Toolbox           |
|  \\    /   O peration     | Version:  2212                                  |
|   \\  /    A nd           | Website:  www.openfoam.com                      |
|    \\/     M anipulation  |                                                 |
\*---------------------------------------------------------------------------*/
FoamFile
{
    version     2.0;
    format      ascii;
    arch        "LSB;label=32;scalar=64";
    class       volScalarField;
    location    "11.3";
    object      p;
}
// * * * * * * * * * * * * * * * * * * * * * * * * * * * * * * * * * * * * * //

dimensions      [0 2 -2 0 0 0 0];

internalField   nonuniform List<scalar> 
400
(
5.04598e-07
-0.000150488
-0.000534568
-0.00107177
-0.0017325
-0.00249397
-0.0031851
-0.00359767
-0.00356545
-0.00293418
-0.00154863
0.000619333
0.00324955
0.00551407
0.00653377
0.0059229
0.00400211
0.00214969
0.00111069
0.00104163
0.000116399
-5.80163e-05
-0.000376962
-0.000764138
-0.00124406
-0.00188819
-0.00270631
-0.00354363
-0.00408011
-0.00393854
-0.00284654
-0.000824947
0.00168932
0.0039609
0.00512471
0.00474312
0.00310303
0.00137479
0.000593196
0.000684238
0.000536517
0.000265047
-7.72455e-05
-0.000559604
-0.00134731
-0.00258071
-0.00421928
-0.00598394
-0.00740273
-0.00794405
-0.00726436
-0.00546215
-0.00289177
-0.000194745
0.00179168
0.00242771
0.00170879
0.000502095
-0.000396098
-0.000392812
0.00115203
0.000741343
0.000191952
-0.000774784
-0.00245117
-0.00493796
-0.00799533
-0.0111207
-0.0137035
-0.0151771
-0.015207
-0.0138401
-0.0112938
-0.00802923
-0.00475241
-0.00220991
-0.000870585
-0.000706423
-0.00128903
-0.00191836
0.00158342
0.000973819
-2.28079e-05
-0.0019241
-0.00500676
-0.00918023
-0.0139139
-0.0184799
-0.0222163
-0.024653
-0.0255286
-0.0247229
-0.0223635
-0.0187435
-0.0143047
-0.00965584
-0.00559229
-0.0029491
-0.00219347
-0.00401818
0.00129347
0.000445126
-0.00119729
-0.00430442
-0.00900515
-0.0148808
-0.0210729
-0.0267154
-0.0311913
-0.0341785
-0.0355453
-0.0351893
-0.0331967
-0.0297185
-0.0248993
-0.018961
-0.0125054
-0.00694852
-0.00440109
-0.00652438
-4.82082e-05
-0.00114746
-0.00349941
-0.00779687
-0.0139326
-0.0211145
-0.0282362
-0.0344077
-0.0391286
-0.0422319
-0.0437196
-0.0436102
-0.0419724
-0.0388785
-0.0343106
-0.028157
-0.020539
-0.0127029
-0.00785494
-0.00774815
-0.00245038
-0.00374209
-0.00669856
-0.0119134
-0.0190399
-0.0269819
-0.0345041
-0.0407791
-0.0454506
-0.0484767
-0.0499394
-0.0499307
-0.04853
-0.045788
-0.041662
-0.0359264
-0.0283255
-0.019371
-0.0118223
-0.00798067
-0.00553754
-0.00691513
-0.0102636
-0.0160219
-0.0236582
-0.0318895
-0.0394512
-0.0456127
-0.0501371
-0.0530572
-0.0544863
-0.0545264
-0.0532522
-0.0507253
-0.0469617
-0.0418117
-0.0348676
-0.0259476
-0.0167091
-0.00999461
-0.00873365
-0.0100858
-0.0135976
-0.0195421
-0.0272863
-0.035487
-0.0429119
-0.0489095
-0.0533091
-0.056167
-0.0575909
-0.0576621
-0.0564437
-0.0540106
-0.0504507
-0.0457601
-0.0396338
-0.0315238
-0.0223211
-0.0143399
-0.011504
-0.0127578
-0.0162191
-0.0220542
-0.0296069
-0.0375884
-0.0448261
-0.0506989
-0.0550422
-0.0578935
-0.0593358
-0.0594274
-0.0582181
-0.0557883
-0.0522863
-0.0478519
-0.0424307
-0.0353824
-0.0271978
-0.0191792
-0.0135492
-0.0146185
-0.0178557
-0.0233152
-0.0304307
-0.0380624
-0.0451173
-0.0509491
-0.0553283
-0.0582397
-0.0597273
-0.0598297
-0.0585877
-0.0560823
-0.0525149
-0.0481376
-0.0432064
-0.037056
-0.0300317
-0.0224171
-0.0148372
-0.0155677
-0.0183516
-0.0232099
-0.029693
-0.0368783
-0.043764
-0.0496395
-0.0541541
-0.0572001
-0.0587691
-0.0588762
-0.0575569
-0.054915
-0.0511764
-0.0466553
-0.041965
-0.0362998
-0.0302258
-0.0228957
-0.0154675
-0.0157218
-0.017777
-0.0217459
-0.0273892
-0.034031
-0.0407499
-0.0467398
-0.051492
-0.0547673
-0.0564812
-0.0566222
-0.0552006
-0.052352
-0.0483454
-0.0435812
-0.0387302
-0.0331411
-0.0280993
-0.020279
-0.0155741
-0.0152979
-0.0163377
-0.0190874
-0.0236526
-0.0296336
-0.0361709
-0.0423351
-0.0474268
-0.0510385
-0.0529792
-0.0531825
-0.05169
-0.0485905
-0.044226
-0.0390533
-0.0337814
-0.0280713
-0.0242313
-0.0143848
-0.0152765
-0.0145498
-0.0142605
-0.0154256
-0.0186845
-0.0238942
-0.0302308
-0.036614
-0.042137
-0.0462003
-0.0484885
-0.0488655
-0.0473523
-0.0440202
-0.0392483
-0.0335185
-0.0276409
-0.0216291
-0.0180534
-0.0038328
-0.0146618
-0.0136179
-0.0117066
-0.0110808
-0.0129533
-0.0173799
-0.0235336
-0.0301699
-0.0361926
-0.0408108
-0.0435779
-0.0442609
-0.0428499
-0.0393758
-0.0341848
-0.0276894
-0.0206821
-0.0132761
-0.00678581
0.0160529
-0.014583
-0.0126569
-0.00864825
-0.00623443
-0.00690988
-0.0107456
-0.0168175
-0.0237395
-0.0302981
-0.0355387
-0.038903
-0.0400344
-0.0388769
-0.0354475
-0.0298955
-0.0222756
-0.0128726
-0.000688268
0.0166949
0.0570638
-0.0117944
-0.0118305
-0.00572593
-0.00177489
-0.00176487
-0.00540457
-0.011575
-0.0188146
-0.0258751
-0.0316869
-0.0356617
-0.0373613
-0.0366847
-0.0333549
-0.0272239
-0.0175414
-0.00314828
0.0204901
0.0607041
0.129821
-0.0295166
-0.0106295
-0.000608719
0.00308092
0.00244833
-0.00155689
-0.00799926
-0.0155531
-0.0229757
-0.0291733
-0.0335313
-0.0355874
-0.0352006
-0.0319553
-0.0252273
-0.0128598
0.0094226
0.0511714
0.122878
0.226076
)
;

boundaryField
{
    movingWall
    {
        type            zeroGradient;
    }
    fixedWalls
    {
        type            zeroGradient;
    }
    frontAndBack
    {
        type            empty;
    }
}


// ************************************************************************* //
