/*--------------------------------*- C++ -*----------------------------------*\
| =========                 |                                                 |
| \\      /  F ield         | OpenFOAM: The Open Source CFD Toolbox           |
|  \\    /   O peration     | Version:  2212                                  |
|   \\  /    A nd           | Website:  www.openfoam.com                      |
|    \\/     M anipulation  |                                                 |
\*---------------------------------------------------------------------------*/
FoamFile
{
    version     2.0;
    format      ascii;
    arch        "LSB;label=32;scalar=64";
    class       surfaceScalarField;
    location    "11.3";
    object      phi;
}
// * * * * * * * * * * * * * * * * * * * * * * * * * * * * * * * * * * * * * //

dimensions      [0 3 -1 0 0 0 0];

oriented        oriented;

internalField   nonuniform List<scalar> 
760
(
1.56083e-07
-1.56129e-07
2.93631e-07
-1.37548e-07
3.09995e-07
-1.63644e-08
1.83686e-07
1.26309e-07
-1.20304e-07
3.0399e-07
-6.65927e-07
5.45623e-07
-1.48527e-06
8.19348e-07
-2.49087e-06
1.0056e-06
-3.48036e-06
9.89487e-07
-4.22035e-06
7.39996e-07
-4.54398e-06
3.23626e-07
-4.35365e-06
-1.90327e-07
-3.59375e-06
-7.59897e-07
-2.37898e-06
-1.21478e-06
-9.40003e-07
-1.43897e-06
3.47767e-07
-1.28777e-06
1.08995e-06
-7.42185e-07
1.03309e-06
5.68642e-08
4.60998e-07
5.7209e-07
4.60998e-07
1.2505e-07
-2.81179e-07
7.46127e-08
-8.71102e-08
-2.97022e-07
3.5527e-07
-1.07891e-06
9.08196e-07
-2.31595e-06
1.54103e-06
-3.92743e-06
2.1571e-06
-5.66234e-06
2.55426e-06
-7.20707e-06
2.55033e-06
-8.33698e-06
2.11939e-06
-8.94232e-06
1.34534e-06
-8.97624e-06
3.57545e-07
-8.41623e-06
-7.50337e-07
-7.29365e-06
-1.88248e-06
-5.64204e-06
-2.86638e-06
-3.60581e-06
-3.4752e-06
-1.49022e-06
-3.40336e-06
1.78741e-07
-2.41115e-06
8.58997e-07
-6.23392e-07
5.25712e-07
9.05374e-07
9.8671e-07
-1.27599e-07
-1.5358e-07
-6.33931e-07
4.19222e-07
-1.62494e-06
1.34628e-06
-3.14151e-06
2.42476e-06
-5.05758e-06
3.4571e-06
-7.07345e-06
4.17298e-06
-8.87355e-06
4.35436e-06
-1.02778e-05
3.95459e-06
-1.12346e-05
3.07617e-06
-1.17362e-05
1.8469e-06
-1.17302e-05
3.51585e-07
-1.12713e-05
-1.20926e-06
-1.03386e-05
-2.8152e-06
-8.8779e-06
-4.32705e-06
-6.86962e-06
-5.48348e-06
-4.40324e-06
-5.86974e-06
-1.87874e-06
-4.93564e-06
-8.63935e-08
-2.41574e-06
2.94693e-07
5.24288e-07
1.2814e-06
-5.00533e-07
3.46953e-07
-1.56001e-06
1.4787e-06
-3.11955e-06
2.90582e-06
-5.08148e-06
4.38669e-06
-7.18541e-06
5.56102e-06
-9.12343e-06
6.111e-06
-1.06933e-05
5.92423e-06
-1.18525e-05
5.11381e-06
-1.26292e-05
3.85281e-06
-1.30578e-05
2.27555e-06
-1.31228e-05
4.1663e-07
-1.28833e-05
-1.44877e-06
-1.23005e-05
-3.39802e-06
-1.12726e-05
-5.35497e-06
-9.66885e-06
-7.0872e-06
-7.3647e-06
-8.17389e-06
-4.3988e-06
-7.90155e-06
-1.37807e-06
-5.43647e-06
1.20737e-07
-9.74518e-07
1.40214e-06
-8.61967e-07
1.20892e-06
-2.36177e-06
2.97851e-06
-4.23291e-06
4.77695e-06
-6.28032e-06
6.4341e-06
-8.22277e-06
7.50348e-06
-9.83755e-06
7.72578e-06
-1.1048e-05
7.13466e-06
-1.18806e-05
5.94645e-06
-1.23972e-05
4.36942e-06
-1.26704e-05
2.54876e-06
-1.2791e-05
5.37217e-07
-1.27454e-05
-1.49443e-06
-1.25247e-05
-3.6187e-06
-1.20501e-05
-5.82958e-06
-1.11354e-05
-8.00193e-06
-9.49259e-06
-9.81667e-06
-6.8223e-06
-1.05718e-05
-3.22303e-06
-9.03574e-06
-2.61167e-07
-3.93638e-06
1.14097e-06
-1.08713e-06
2.29605e-06
-2.78472e-06
4.6761e-06
-4.67859e-06
6.67082e-06
-6.53672e-06
8.29223e-06
-8.13476e-06
9.10152e-06
-9.34171e-06
8.93272e-06
-1.01536e-05
7.94652e-06
-1.06355e-05
6.42834e-06
-1.08776e-05
4.61153e-06
-1.09795e-05
2.65074e-06
-1.10628e-05
6.20427e-07
-1.11133e-05
-1.44389e-06
-1.11474e-05
-3.58459e-06
-1.11362e-05
-5.84075e-06
-1.09265e-05
-8.21167e-06
-1.01912e-05
-1.05519e-05
-8.43615e-06
-1.23269e-05
-5.2451e-06
-1.22268e-05
-1.15868e-06
-8.0228e-06
-1.7703e-08
-1.11126e-06
3.40731e-06
-2.75942e-06
6.32426e-06
-4.45746e-06
8.36886e-06
-5.99357e-06
9.82834e-06
-7.20763e-06
1.03156e-05
-8.03733e-06
9.76243e-06
-8.52046e-06
8.42965e-06
-8.74399e-06
6.65187e-06
-8.81137e-06
4.67892e-06
-8.81931e-06
2.65868e-06
-8.84987e-06
6.50984e-07
-8.92121e-06
-1.37255e-06
-9.05329e-06
-3.45251e-06
-9.2578e-06
-5.63624e-06
-9.47875e-06
-7.99072e-06
-9.48541e-06
-1.05453e-05
-8.7591e-06
-1.30532e-05
-6.54131e-06
-1.44446e-05
-2.42498e-06
-1.21391e-05
-2.44269e-06
-9.36641e-07
4.34395e-06
-2.34903e-06
7.73665e-06
-3.73702e-06
9.75685e-06
-4.9171e-06
1.10084e-05
-5.78834e-06
1.11868e-05
-6.33396e-06
1.0308e-05
-6.61115e-06
8.70684e-06
-6.71092e-06
6.75164e-06
-6.72908e-06
4.69708e-06
-6.73832e-06
2.66791e-06
-6.77395e-06
6.86618e-07
-6.85276e-06
-1.29374e-06
-6.99566e-06
-3.30961e-06
-7.2333e-06
-5.3986e-06
-7.58329e-06
-7.64072e-06
-7.95567e-06
-1.01729e-05
-7.94143e-06
-1.30675e-05
-6.7226e-06
-1.56634e-05
-3.58988e-06
-1.52718e-05
-6.03256e-06
-6.26072e-07
4.97003e-06
-1.68977e-06
8.80035e-06
-2.72404e-06
1.07911e-05
-3.56427e-06
1.18486e-05
-4.15495e-06
1.17775e-05
-4.50629e-06
1.06594e-05
-4.67722e-06
8.87777e-06
-4.74606e-06
6.82048e-06
-4.78491e-06
4.73593e-06
-4.83695e-06
2.71995e-06
-4.912e-06
7.61667e-07
-5.0162e-06
-1.18953e-06
-5.15932e-06
-3.16649e-06
-5.36985e-06
-5.18807e-06
-5.703e-06
-7.30758e-06
-6.17295e-06
-9.70293e-06
-6.56305e-06
-1.26774e-05
-6.13296e-06
-1.60935e-05
-3.92712e-06
-1.74777e-05
-9.95968e-06
-2.33278e-07
5.2033e-06
-8.95041e-07
9.46211e-06
-1.56761e-06
1.14637e-05
-2.09817e-06
1.23792e-05
-2.45907e-06
1.21384e-05
-2.67462e-06
1.08749e-05
-2.79303e-06
8.99618e-06
-2.86748e-06
6.89493e-06
-2.94243e-06
4.81088e-06
-3.03968e-06
2.8172e-06
-3.16193e-06
8.83912e-07
-3.30864e-06
-1.04282e-06
-3.47985e-06
-2.99529e-06
-3.6876e-06
-4.98032e-06
-3.9822e-06
-7.01298e-06
-4.44612e-06
-9.239e-06
-5.02807e-06
-1.20954e-05
-5.12738e-06
-1.59942e-05
-3.56076e-06
-1.90443e-05
-1.35204e-05
1.63764e-07
5.03954e-06
-7.04629e-08
9.69634e-06
-4.03943e-07
1.17972e-05
-6.55484e-07
1.26307e-05
-8.11025e-07
1.2294e-05
-9.01706e-07
1.09656e-05
-9.66884e-07
9.06136e-06
-1.03841e-06
6.96646e-06
-1.13281e-06
4.90528e-06
-1.25785e-06
2.94225e-06
-1.41611e-06
1.04217e-06
-1.60971e-06
-8.49214e-07
-1.83707e-06
-2.76793e-06
-2.09579e-06
-4.7216e-06
-2.41304e-06
-6.69573e-06
-2.88017e-06
-8.77187e-06
-3.56277e-06
-1.14128e-05
-4.02716e-06
-1.55298e-05
-3.02687e-06
-2.00446e-05
-1.65473e-05
5.02489e-07
4.53705e-06
7.0073e-07
9.4981e-06
7.4413e-07
1.17538e-05
7.79881e-07
1.2595e-05
8.24842e-07
1.2249e-05
8.53715e-07
1.09367e-05
8.46866e-07
9.06821e-06
7.96112e-07
7.01721e-06
7.02246e-07
4.99915e-06
5.66957e-07
3.07754e-06
3.85006e-07
1.22412e-06
1.50204e-07
-6.14411e-07
-1.38987e-07
-2.47874e-06
-4.89204e-07
-4.37138e-06
-9.03951e-07
-6.28099e-06
-1.42657e-06
-8.24925e-06
-2.20456e-06
-1.06348e-05
-2.95402e-06
-1.47803e-05
-2.46097e-06
-2.05376e-05
-1.90083e-05
7.59801e-07
3.77725e-06
1.3596e-06
8.8983e-06
1.7541e-06
1.13593e-05
2.08518e-06
1.22639e-05
2.35973e-06
1.19744e-05
2.54764e-06
1.07488e-05
2.64086e-06
8.97499e-06
2.65006e-06
7.008e-06
2.58922e-06
5.05999e-06
2.46463e-06
3.20212e-06
2.26863e-06
1.42012e-06
1.98714e-06
-3.32916e-07
1.62083e-06
-2.11243e-06
1.16484e-06
-3.91538e-06
6.14935e-07
-5.73108e-06
-7.99398e-08
-7.55438e-06
-9.53687e-07
-9.7611e-06
-1.91682e-06
-1.38172e-05
-1.92414e-06
-2.05303e-05
-2.09324e-05
8.75565e-07
2.90169e-06
1.81908e-06
7.95478e-06
2.56416e-06
1.06142e-05
3.20827e-06
1.16198e-05
3.75888e-06
1.14238e-05
4.17281e-06
1.03349e-05
4.43425e-06
8.71355e-06
4.55716e-06
6.8851e-06
4.5643e-06
5.05285e-06
4.47064e-06
3.29579e-06
4.27391e-06
1.61684e-06
3.94145e-06
-4.54465e-10
3.49408e-06
-1.66506e-06
2.90617e-06
-3.32747e-06
2.17902e-06
-5.00394e-06
1.33185e-06
-6.7072e-06
2.74358e-07
-8.7036e-06
-9.53132e-07
-1.25897e-05
-1.42488e-06
-2.00586e-05
-2.23573e-05
8.11446e-07
2.09024e-06
1.96506e-06
6.80117e-06
3.01274e-06
9.56651e-06
3.99083e-06
1.06417e-05
4.87243e-06
1.05422e-05
5.59156e-06
9.61577e-06
6.10912e-06
8.19599e-06
6.42804e-06
6.56617e-06
6.56903e-06
4.91186e-06
6.54985e-06
3.31496e-06
6.36862e-06
1.79807e-06
6.02264e-06
3.45529e-07
5.47882e-06
-1.12124e-06
4.74472e-06
-2.59337e-06
3.81252e-06
-4.07174e-06
2.71131e-06
-5.60599e-06
1.40176e-06
-7.39405e-06
-1.48906e-07
-1.10391e-05
-9.09023e-07
-1.92985e-05
-2.32663e-05
5.81463e-07
1.50878e-06
1.7703e-06
5.61233e-06
3.11549e-06
8.22131e-06
4.47322e-06
9.284e-06
5.74598e-06
9.26946e-06
6.83517e-06
8.52658e-06
7.67538e-06
7.35578e-06
8.25391e-06
5.98765e-06
8.58298e-06
4.58279e-06
8.67915e-06
3.2188e-06
8.549e-06
1.92821e-06
8.18963e-06
7.04899e-07
7.55689e-06
-4.88494e-07
6.66824e-06
-1.70472e-06
5.51108e-06
-2.91458e-06
4.12647e-06
-4.22138e-06
2.58854e-06
-5.85612e-06
9.69111e-07
-9.41963e-06
-1.38906e-07
-1.81904e-05
-2.34052e-05
1.54338e-07
1.35444e-06
1.04871e-06
4.71796e-06
2.53356e-06
6.73647e-06
4.26369e-06
7.55388e-06
5.99371e-06
7.53943e-06
7.53588e-06
6.98442e-06
8.78747e-06
6.10418e-06
9.71865e-06
5.05647e-06
1.03244e-05
3.97702e-06
1.06161e-05
2.92715e-06
1.05995e-05
1.9448e-06
1.02802e-05
1.02424e-06
9.61165e-06
1.80005e-07
8.61668e-06
-7.09741e-07
7.28493e-06
-1.58284e-06
5.66867e-06
-2.60512e-06
3.92915e-06
-4.1166e-06
2.25073e-06
-7.74121e-06
6.56938e-07
-1.65967e-05
-2.27483e-05
-5.19155e-07
1.87359e-06
2.03733e-07
3.99507e-06
1.76792e-06
5.17228e-06
3.84153e-06
5.48027e-06
6.0073e-06
5.37366e-06
7.97818e-06
5.01354e-06
9.61755e-06
4.46482e-06
1.08838e-05
3.79025e-06
1.17593e-05
3.1015e-06
1.22602e-05
2.42627e-06
1.23898e-05
1.81517e-06
1.21679e-05
1.24616e-06
1.16187e-05
7.29205e-07
1.07124e-05
1.96537e-07
9.4538e-06
-3.24255e-07
7.91674e-06
-1.06806e-06
6.28711e-06
-2.48696e-06
4.46684e-06
-5.92094e-06
2.05977e-06
-1.41896e-05
-2.06885e-05
-4.18158e-06
6.05518e-06
-3.64416e-06
3.45765e-06
-1.2438e-06
2.77191e-06
1.56269e-06
2.67378e-06
4.3113e-06
2.62505e-06
6.85495e-06
2.46989e-06
9.07991e-06
2.23986e-06
1.09257e-05
1.9445e-06
1.23736e-05
1.65358e-06
1.34506e-05
1.34927e-06
1.41737e-05
1.0921e-06
1.45876e-05
8.32244e-07
1.46799e-05
6.36884e-07
1.44595e-05
4.16885e-07
1.39226e-05
2.12642e-07
1.30851e-05
-2.30503e-07
1.19347e-05
-1.3366e-06
1.01167e-05
-4.10292e-06
5.63959e-06
-9.71247e-06
-1.50489e-05
6.05518e-06
9.51283e-06
1.22847e-05
1.49585e-05
1.75836e-05
2.00535e-05
2.22933e-05
2.42378e-05
2.58914e-05
2.72407e-05
2.83328e-05
2.9165e-05
2.98019e-05
3.02188e-05
3.04314e-05
3.02009e-05
2.88643e-05
2.47614e-05
1.50489e-05
)
;

boundaryField
{
    movingWall
    {
        type            calculated;
        value           uniform 0;
    }
    fixedWalls
    {
        type            calculated;
        value           uniform 0;
    }
    frontAndBack
    {
        type            empty;
        value           nonuniform List<scalar> 0();
    }
}


// ************************************************************************* //
