/*--------------------------------*- C++ -*----------------------------------*\
| =========                 |                                                 |
| \\      /  F ield         | OpenFOAM: The Open Source CFD Toolbox           |
|  \\    /   O peration     | Version:  2212                                  |
|   \\  /    A nd           | Website:  www.openfoam.com                      |
|    \\/     M anipulation  |                                                 |
\*---------------------------------------------------------------------------*/
FoamFile
{
    version     2.0;
    format      ascii;
    arch        "LSB;label=32;scalar=64";
    class       volScalarField;
    location    "11.3";
    object      T;
}
// * * * * * * * * * * * * * * * * * * * * * * * * * * * * * * * * * * * * * //

dimensions      [0 0 0 1 0 0 0];

internalField   nonuniform List<scalar> 
400
(
0.918521
0.920362
0.924105
0.929631
0.936042
0.941842
0.945946
0.948288
0.949527
0.950359
0.95111
0.95188
0.952699
0.953538
0.954261
0.954653
0.954352
0.952972
0.950716
0.948867
0.9209
0.923152
0.927662
0.9341
0.940869
0.945807
0.948192
0.949023
0.94932
0.949543
0.949971
0.950768
0.951987
0.953559
0.95516
0.956295
0.956206
0.954317
0.951385
0.949265
0.924614
0.927625
0.933206
0.939909
0.945158
0.947387
0.947373
0.946435
0.945244
0.944341
0.944198
0.945143
0.947189
0.950271
0.953828
0.957029
0.958488
0.956818
0.952613
0.950001
0.928249
0.93204
0.938113
0.943556
0.945926
0.945068
0.942415
0.939018
0.935649
0.933158
0.932185
0.933275
0.936293
0.941307
0.947628
0.954263
0.959372
0.960512
0.955824
0.951748
0.931051
0.935297
0.940921
0.944043
0.943102
0.93899
0.93322
0.926844
0.92101
0.916753
0.914828
0.915869
0.919706
0.926482
0.935589
0.946046
0.956006
0.962592
0.961633
0.955013
0.932912
0.937157
0.941583
0.94192
0.937609
0.930171
0.92115
0.911873
0.903788
0.897985
0.895228
0.896019
0.900342
0.908282
0.919447
0.933008
0.947367
0.959851
0.965996
0.959805
0.933975
0.937805
0.940614
0.938162
0.930741
0.920234
0.908324
0.896687
0.886932
0.880115
0.876864
0.877434
0.881907
0.890319
0.902533
0.91805
0.935587
0.952703
0.965447
0.966669
0.93446
0.937674
0.938868
0.933989
0.92391
0.910795
0.896579
0.883247
0.872451
0.865128
0.861689
0.862171
0.866589
0.874942
0.887278
0.903566
0.923126
0.943772
0.961443
0.970351
0.934552
0.937096
0.936878
0.93008
0.917951
0.902891
0.88707
0.872655
0.861272
0.853716
0.850203
0.850648
0.854968
0.863067
0.874982
0.891022
0.911403
0.9347
0.956295
0.968743
0.934393
0.936375
0.935194
0.927207
0.913763
0.897419
0.88055
0.865441
0.853673
0.845917
0.842268
0.842611
0.846822
0.854709
0.86612
0.88136
0.901433
0.926316
0.95165
0.967533
0.934068
0.935647
0.933931
0.925388
0.91132
0.894391
0.877086
0.861684
0.849688
0.841699
0.837786
0.837875
0.841865
0.849525
0.860494
0.874785
0.893763
0.919054
0.947326
0.966759
0.933623
0.934998
0.933253
0.924939
0.911063
0.894259
0.877044
0.861636
0.849488
0.841214
0.836934
0.836618
0.840196
0.847443
0.857885
0.871162
0.888557
0.913319
0.943869
0.966338
0.933053
0.934392
0.932957
0.925431
0.912426
0.896424
0.87989
0.864931
0.852939
0.844554
0.839955
0.83915
0.842113
0.848636
0.858241
0.870355
0.885825
0.909118
0.941137
0.966292
0.932321
0.933791
0.93301
0.926889
0.915538
0.901099
0.885886
0.871852
0.860324
0.851986
0.847106
0.84569
0.847796
0.853221
0.861546
0.872121
0.885432
0.906675
0.939374
0.966552
0.931355
0.933054
0.932914
0.92832
0.919028
0.906752
0.893537
0.88111
0.87066
0.862844
0.85798
0.856063
0.857189
0.861199
0.867767
0.876447
0.887457
0.905959
0.938452
0.967125
0.930207
0.932203
0.932891
0.930064
0.923273
0.91373
0.903095
0.89281
0.883897
0.876944
0.872268
0.869915
0.869913
0.872224
0.876651
0.882983
0.8915
0.906704
0.938421
0.968028
0.929069
0.931026
0.931959
0.930391
0.925891
0.919241
0.911601
0.904031
0.897278
0.891804
0.887812
0.885419
0.884549
0.885291
0.887634
0.891548
0.897827
0.910144
0.94027
0.969564
0.928264
0.930572
0.932129
0.931615
0.929146
0.925183
0.920404
0.915456
0.910812
0.906825
0.903623
0.901357
0.900011
0.89967
0.900552
0.902567
0.907197
0.916682
0.943741
0.9715
0.917606
0.928324
0.928425
0.928187
0.926872
0.925064
0.922969
0.921012
0.919208
0.917879
0.916907
0.916474
0.916515
0.916994
0.91827
0.919898
0.924061
0.931307
0.951859
0.974819
0.942105
0.949126
0.952901
0.955182
0.956422
0.957212
0.957642
0.958074
0.958384
0.958848
0.959259
0.959866
0.960429
0.961187
0.961914
0.96292
0.964194
0.966876
0.972204
0.981613
)
;

boundaryField
{
    movingWall
    {
        type            fixedValue;
        value           uniform 1;
    }
    fixedWalls
    {
        type            zeroGradient;
    }
    frontAndBack
    {
        type            empty;
    }
}


// ************************************************************************* //
