/*--------------------------------*- C++ -*----------------------------------*\
| =========                 |                                                 |
| \\      /  F ield         | OpenFOAM: The Open Source CFD Toolbox           |
|  \\    /   O peration     | Version:  2212                                  |
|   \\  /    A nd           | Website:  www.openfoam.com                      |
|    \\/     M anipulation  |                                                 |
\*---------------------------------------------------------------------------*/
FoamFile
{
    version     2.0;
    format      ascii;
    arch        "LSB;label=32;scalar=64";
    class       volScalarField;
    location    "3.1";
    object      T;
}
// * * * * * * * * * * * * * * * * * * * * * * * * * * * * * * * * * * * * * //

dimensions      [0 0 0 1 0 0 0];

internalField   nonuniform List<scalar> 
400
(
0.245605
0.271115
0.321884
0.395328
0.47941
0.554773
0.607058
0.635247
0.648468
0.655979
0.661211
0.664823
0.66695
0.667009
0.663951
0.655606
0.638441
0.606847
0.561543
0.524666
0.276375
0.307806
0.369438
0.455146
0.54396
0.608915
0.641966
0.656789
0.665729
0.672341
0.677838
0.682856
0.687379
0.690451
0.689908
0.681859
0.660571
0.620564
0.568354
0.529203
0.325483
0.367807
0.444697
0.535508
0.608682
0.647185
0.662426
0.669824
0.673677
0.676149
0.679426
0.684972
0.693038
0.702908
0.711387
0.712495
0.695928
0.649759
0.581155
0.537459
0.375849
0.429826
0.516128
0.596683
0.644319
0.660605
0.662894
0.659187
0.652141
0.646223
0.644396
0.649354
0.661228
0.680408
0.704025
0.725977
0.733299
0.704807
0.622726
0.560441
0.417722
0.48046
0.567567
0.629975
0.653475
0.651732
0.639388
0.620976
0.601956
0.587519
0.580555
0.583822
0.597349
0.622577
0.658447
0.701353
0.74103
0.755187
0.702822
0.606298
0.448948
0.516136
0.597917
0.640905
0.644047
0.626482
0.599675
0.56905
0.542053
0.522656
0.512867
0.514113
0.526757
0.552461
0.592128
0.645192
0.70665
0.761723
0.772844
0.674823
0.470807
0.538497
0.612048
0.63779
0.624793
0.594366
0.55668
0.519182
0.489231
0.468915
0.458872
0.458998
0.469832
0.493042
0.530862
0.585028
0.654228
0.730318
0.790541
0.767217
0.485195
0.550542
0.615669
0.628113
0.60323
0.563386
0.518977
0.47884
0.449011
0.429803
0.420478
0.419945
0.428564
0.447996
0.481315
0.532442
0.603427
0.689273
0.773242
0.819455
0.494035
0.555391
0.613341
0.61674
0.583819
0.537882
0.490087
0.44968
0.421174
0.403584
0.395134
0.394302
0.401177
0.41707
0.44483
0.489603
0.557819
0.64961
0.747226
0.81112
0.498601
0.555162
0.607844
0.606641
0.569448
0.520168
0.470907
0.430883
0.403487
0.386958
0.378911
0.37777
0.383577
0.397353
0.421044
0.459132
0.520855
0.614144
0.726306
0.805787
0.499853
0.551444
0.600886
0.598934
0.560544
0.51006
0.460556
0.420926
0.393924
0.377561
0.369274
0.367584
0.372575
0.385124
0.406348
0.439081
0.492986
0.583214
0.705327
0.802169
0.498392
0.545086
0.592689
0.593527
0.55741
0.507949
0.459065
0.419463
0.391896
0.374764
0.365697
0.363305
0.367607
0.379367
0.399173
0.428058
0.474229
0.559153
0.6894
0.800388
0.49436
0.536721
0.583602
0.589887
0.558946
0.512499
0.465189
0.425754
0.397312
0.378989
0.36886
0.365632
0.369183
0.380051
0.398533
0.424445
0.463259
0.5402
0.675706
0.800329
0.487426
0.526159
0.572351
0.585961
0.563685
0.523354
0.479548
0.441166
0.411983
0.392172
0.380571
0.376098
0.378531
0.38804
0.40466
0.427513
0.459772
0.528093
0.666692
0.801789
0.477111
0.514266
0.559777
0.580525
0.56846
0.536686
0.498735
0.463436
0.435064
0.414713
0.402028
0.396226
0.397064
0.404386
0.417981
0.437062
0.463297
0.521626
0.660749
0.804752
0.46359
0.499913
0.544261
0.57146
0.571298
0.551355
0.52262
0.493234
0.467785
0.448163
0.434793
0.427394
0.425712
0.42954
0.438674
0.452612
0.473087
0.520766
0.659172
0.809388
0.450971
0.487431
0.529105
0.558242
0.566657
0.558352
0.54084
0.520501
0.5013
0.485302
0.473262
0.465346
0.461417
0.461386
0.465663
0.47398
0.490135
0.529906
0.665781
0.817267
0.441366
0.474566
0.515295
0.545016
0.559744
0.561676
0.555337
0.544701
0.532807
0.521486
0.51181
0.504266
0.499359
0.496954
0.498629
0.503523
0.518753
0.55357
0.681295
0.827527
0.38116
0.480188
0.500761
0.519903
0.530326
0.535577
0.537099
0.537145
0.536275
0.536172
0.536629
0.53854
0.541884
0.546359
0.554077
0.562568
0.582709
0.617098
0.720275
0.845149
0.559805
0.61663
0.649898
0.672922
0.688818
0.701136
0.71053
0.719107
0.726215
0.733583
0.739952
0.747044
0.753209
0.760338
0.766551
0.774431
0.782614
0.798832
0.827608
0.882924
)
;

boundaryField
{
    movingWall
    {
        type            fixedValue;
        value           uniform 1;
    }
    fixedWalls
    {
        type            zeroGradient;
    }
    frontAndBack
    {
        type            empty;
    }
}


// ************************************************************************* //
