/*--------------------------------*- C++ -*----------------------------------*\
| =========                 |                                                 |
| \\      /  F ield         | OpenFOAM: The Open Source CFD Toolbox           |
|  \\    /   O peration     | Version:  2212                                  |
|   \\  /    A nd           | Website:  www.openfoam.com                      |
|    \\/     M anipulation  |                                                 |
\*---------------------------------------------------------------------------*/
FoamFile
{
    version     2.0;
    format      ascii;
    arch        "LSB;label=32;scalar=64";
    class       volScalarField;
    location    "14.4";
    object      p;
}
// * * * * * * * * * * * * * * * * * * * * * * * * * * * * * * * * * * * * * //

dimensions      [0 2 -2 0 0 0 0];

internalField   nonuniform List<scalar> 
400
(
1.73486e-07
-0.00015085
-0.000534934
-0.00107214
-0.00173287
-0.00249435
-0.00318548
-0.00359806
-0.00356584
-0.00293457
-0.00154901
0.000618951
0.00324917
0.00551369
0.00653336
0.00592245
0.00400163
0.00214919
0.00111019
0.00104114
0.000116035
-5.8382e-05
-0.000377328
-0.000764505
-0.00124442
-0.00188855
-0.00270668
-0.00354402
-0.00408053
-0.00393894
-0.00284693
-0.000825333
0.00168894
0.0039605
0.00512429
0.00474266
0.00310253
0.00137429
0.0005927
0.000683744
0.000536152
0.000264682
-7.76107e-05
-0.000559972
-0.00134769
-0.00258109
-0.00421967
-0.00598437
-0.0074032
-0.00794452
-0.00726482
-0.00546258
-0.0028922
-0.000195176
0.00179123
0.00242723
0.00170829
0.000501586
-0.000396604
-0.000393312
0.00115167
0.00074098
0.000191589
-0.000775154
-0.00245157
-0.00493838
-0.00799579
-0.0111212
-0.0137041
-0.0151777
-0.0152076
-0.0138406
-0.0112943
-0.00802975
-0.00475292
-0.00221042
-0.000871095
-0.000706934
-0.00128954
-0.00191887
0.00158307
0.000973463
-2.31706e-05
-0.00192448
-0.00500719
-0.00918074
-0.0139145
-0.0184806
-0.022217
-0.0246538
-0.0255294
-0.0247237
-0.0223642
-0.0187442
-0.0143053
-0.00965642
-0.00559283
-0.00294963
-0.00219398
-0.0040187
0.00129313
0.000444775
-0.00119767
-0.00430483
-0.00900563
-0.0148813
-0.0210736
-0.0267162
-0.0311922
-0.0341795
-0.0355463
-0.0351903
-0.0331977
-0.0297194
-0.0249001
-0.0189617
-0.012506
-0.00694907
-0.00440161
-0.00652492
-4.85438e-05
-0.00114781
-0.00349981
-0.00779735
-0.0139332
-0.0211152
-0.0282371
-0.0344087
-0.0391297
-0.0422331
-0.0437208
-0.0436115
-0.0419736
-0.0388796
-0.0343116
-0.0281578
-0.0205397
-0.0127035
-0.00785549
-0.00774867
-0.00245074
-0.00374246
-0.00669898
-0.0119139
-0.0190406
-0.0269827
-0.0345051
-0.0407803
-0.045452
-0.0484782
-0.049941
-0.0499322
-0.0485314
-0.0457894
-0.0416632
-0.0359274
-0.0283263
-0.0193717
-0.0118229
-0.00798119
-0.00553793
-0.00691554
-0.0102641
-0.0160225
-0.023659
-0.0318905
-0.0394524
-0.0456142
-0.0501388
-0.0530589
-0.0544881
-0.0545282
-0.0532539
-0.0507269
-0.0469631
-0.0418129
-0.0348686
-0.0259484
-0.0167098
-0.00999517
-0.00873408
-0.0100862
-0.0135981
-0.0195428
-0.0272872
-0.0354881
-0.0429133
-0.0489111
-0.0533109
-0.0561689
-0.0575929
-0.0576641
-0.0564456
-0.0540124
-0.0504523
-0.0457614
-0.0396349
-0.0315248
-0.0223219
-0.0143405
-0.0115044
-0.0127583
-0.0162197
-0.0220549
-0.0296079
-0.0375896
-0.0448276
-0.0507005
-0.0550441
-0.0578956
-0.059338
-0.0594295
-0.0582202
-0.0557902
-0.0522879
-0.0478533
-0.0424319
-0.0353834
-0.0271986
-0.01918
-0.0135497
-0.014619
-0.0178563
-0.023316
-0.0304316
-0.0380636
-0.0451187
-0.0509508
-0.0553303
-0.0582418
-0.0597295
-0.0598319
-0.0585898
-0.0560843
-0.0525166
-0.048139
-0.0432076
-0.037057
-0.0300325
-0.0224178
-0.0148377
-0.0155682
-0.0183522
-0.0232107
-0.0296939
-0.0368795
-0.0437654
-0.0496411
-0.0541559
-0.0572021
-0.0587712
-0.0588783
-0.057559
-0.0549169
-0.051178
-0.0466566
-0.0419661
-0.0363007
-0.0302266
-0.0228964
-0.015468
-0.0157223
-0.0177775
-0.0217466
-0.0273901
-0.0340321
-0.0407511
-0.0467413
-0.0514937
-0.0547692
-0.0564832
-0.0566242
-0.0552025
-0.0523538
-0.0483468
-0.0435824
-0.0387311
-0.0331418
-0.0281
-0.0202796
-0.0155746
-0.0152984
-0.0163382
-0.019088
-0.0236534
-0.0296345
-0.0361721
-0.0423364
-0.0474283
-0.0510402
-0.052981
-0.0531843
-0.0516917
-0.048592
-0.0442272
-0.0390542
-0.0337821
-0.0280718
-0.0242318
-0.0143852
-0.015277
-0.0145503
-0.0142609
-0.0154261
-0.0186851
-0.0238949
-0.0302318
-0.0366152
-0.0421384
-0.0462018
-0.04849
-0.048867
-0.0473537
-0.0440214
-0.0392493
-0.0335192
-0.0276414
-0.0216294
-0.0180536
-0.00383301
-0.0146622
-0.0136183
-0.011707
-0.0110812
-0.0129538
-0.0173805
-0.0235343
-0.0301708
-0.0361937
-0.040812
-0.0435792
-0.0442622
-0.0428511
-0.0393768
-0.0341856
-0.0276899
-0.0206823
-0.0132762
-0.00678577
0.0160529
-0.0145834
-0.0126573
-0.0086486
-0.00623474
-0.0069102
-0.010746
-0.0168181
-0.0237402
-0.030299
-0.0355397
-0.0389041
-0.0400355
-0.038878
-0.0354483
-0.0298961
-0.022276
-0.0128726
-0.000688111
0.0166951
0.0570639
-0.0117947
-0.0118308
-0.00572622
-0.00177512
-0.00176509
-0.00540485
-0.0115754
-0.0188152
-0.0258758
-0.0316878
-0.0356627
-0.0373623
-0.0366857
-0.0333556
-0.0272244
-0.0175417
-0.00314823
0.0204904
0.0607045
0.129821
-0.029517
-0.0106299
-0.000608974
0.00308073
0.00244816
-0.00155712
-0.00799961
-0.0155536
-0.0229764
-0.0291741
-0.0335323
-0.0355883
-0.0352015
-0.0319561
-0.0252278
-0.0128601
0.00942262
0.0511716
0.122878
0.226076
)
;

boundaryField
{
    movingWall
    {
        type            zeroGradient;
    }
    fixedWalls
    {
        type            zeroGradient;
    }
    frontAndBack
    {
        type            empty;
    }
}


// ************************************************************************* //
