/*--------------------------------*- C++ -*----------------------------------*\
| =========                 |                                                 |
| \\      /  F ield         | OpenFOAM: The Open Source CFD Toolbox           |
|  \\    /   O peration     | Version:  2212                                  |
|   \\  /    A nd           | Website:  www.openfoam.com                      |
|    \\/     M anipulation  |                                                 |
\*---------------------------------------------------------------------------*/
FoamFile
{
    version     2.0;
    format      ascii;
    arch        "LSB;label=32;scalar=64";
    class       volScalarField;
    location    "14.4";
    object      T;
}
// * * * * * * * * * * * * * * * * * * * * * * * * * * * * * * * * * * * * * //

dimensions      [0 0 0 1 0 0 0];

internalField   nonuniform List<scalar> 
400
(
0.956531
0.957455
0.959333
0.962111
0.965353
0.968311
0.970433
0.971669
0.972337
0.972791
0.973204
0.973631
0.974089
0.974561
0.974976
0.975214
0.975081
0.974372
0.9732
0.972241
0.957714
0.958847
0.961119
0.964371
0.967815
0.970354
0.9716
0.972036
0.972186
0.972299
0.972529
0.972968
0.973646
0.974525
0.975428
0.976085
0.976081
0.975104
0.973565
0.972457
0.95956
0.961085
0.963911
0.967316
0.969997
0.971134
0.971094
0.970553
0.969876
0.969363
0.969277
0.969798
0.970933
0.972648
0.974633
0.976434
0.977293
0.976453
0.974234
0.972858
0.96137
0.963297
0.96638
0.96914
0.970318
0.969799
0.968304
0.966401
0.964521
0.963131
0.962588
0.963192
0.964866
0.967648
0.971157
0.974847
0.977709
0.978416
0.975957
0.973797
0.962763
0.96492
0.967762
0.969299
0.968703
0.966399
0.963178
0.959629
0.956385
0.954019
0.95295
0.953529
0.955661
0.959424
0.964476
0.970272
0.975796
0.979475
0.979053
0.975539
0.963678
0.965824
0.96802
0.968065
0.965633
0.961489
0.956466
0.951309
0.946812
0.943585
0.942053
0.942495
0.944904
0.949321
0.955526
0.963051
0.971005
0.977917
0.981354
0.978088
0.964185
0.966099
0.967418
0.965951
0.961809
0.955962
0.949334
0.94286
0.937428
0.933629
0.931818
0.932139
0.934636
0.939326
0.946127
0.954753
0.964484
0.97396
0.981005
0.981745
0.964397
0.965974
0.966415
0.963622
0.95801
0.95071
0.942797
0.935372
0.929351
0.925265
0.923346
0.923618
0.926089
0.930755
0.937635
0.946705
0.957573
0.969019
0.978788
0.983702
0.964409
0.965624
0.965294
0.961445
0.954694
0.946311
0.9375
0.929463
0.923107
0.918886
0.916923
0.917175
0.919594
0.924125
0.930781
0.939726
0.951065
0.963994
0.975946
0.982817
0.964296
0.965213
0.964357
0.959849
0.952365
0.943264
0.933864
0.925434
0.918859
0.914522
0.912482
0.912677
0.915037
0.919452
0.925833
0.934343
0.945525
0.959347
0.973374
0.982146
0.964101
0.96481
0.963662
0.958841
0.951006
0.941577
0.931932
0.923335
0.91663
0.912161
0.909972
0.910024
0.912262
0.916552
0.92269
0.930676
0.94126
0.955321
0.970985
0.981719
0.963848
0.96446
0.963304
0.9586
0.950865
0.941505
0.931908
0.923308
0.916518
0.911889
0.909495
0.909321
0.911327
0.915387
0.92123
0.928654
0.938364
0.95214
0.969071
0.981485
0.963532
0.964143
0.963164
0.958886
0.951627
0.942712
0.933496
0.925148
0.918448
0.913759
0.911187
0.910739
0.9124
0.916054
0.921429
0.928203
0.936844
0.949812
0.967561
0.981459
0.963133
0.963835
0.96323
0.95972
0.953369
0.945321
0.936841
0.929013
0.922576
0.917917
0.915189
0.9144
0.915581
0.918618
0.923275
0.929189
0.936627
0.94846
0.966587
0.981602
0.96261
0.963454
0.963216
0.960544
0.955324
0.948474
0.941108
0.93418
0.92835
0.923986
0.92127
0.920201
0.920833
0.923078
0.926751
0.931605
0.937759
0.948069
0.96608
0.981918
0.961991
0.963014
0.963253
0.96156
0.957715
0.952374
0.946442
0.940708
0.935738
0.93186
0.929251
0.92794
0.927942
0.929236
0.931712
0.935254
0.940015
0.948489
0.966065
0.982416
0.961374
0.96238
0.962772
0.961785
0.959208
0.955468
0.951196
0.946971
0.943205
0.940153
0.937928
0.936596
0.936114
0.936532
0.937845
0.940036
0.943544
0.950407
0.967092
0.983264
0.960938
0.962155
0.962911
0.962522
0.961074
0.958822
0.956133
0.953363
0.950768
0.948544
0.946759
0.945498
0.94475
0.944564
0.945058
0.946186
0.948765
0.954041
0.969013
0.984332
0.955061
0.960854
0.960846
0.96065
0.959871
0.958829
0.957638
0.95653
0.955511
0.95476
0.954209
0.95396
0.953974
0.954234
0.954936
0.955834
0.958136
0.962146
0.973502
0.986163
0.968434
0.972252
0.974296
0.975523
0.976179
0.976591
0.976808
0.977028
0.977184
0.977426
0.977642
0.977965
0.978267
0.978676
0.979071
0.979618
0.980317
0.981791
0.98473
0.989907
)
;

boundaryField
{
    movingWall
    {
        type            fixedValue;
        value           uniform 1;
    }
    fixedWalls
    {
        type            zeroGradient;
    }
    frontAndBack
    {
        type            empty;
    }
}


// ************************************************************************* //
