/*--------------------------------*- C++ -*----------------------------------*\
| =========                 |                                                 |
| \\      /  F ield         | OpenFOAM: The Open Source CFD Toolbox           |
|  \\    /   O peration     | Version:  2212                                  |
|   \\  /    A nd           | Website:  www.openfoam.com                      |
|    \\/     M anipulation  |                                                 |
\*---------------------------------------------------------------------------*/
FoamFile
{
    version     2.0;
    format      ascii;
    arch        "LSB;label=32;scalar=64";
    class       volScalarField;
    location    "11.8";
    object      p;
}
// * * * * * * * * * * * * * * * * * * * * * * * * * * * * * * * * * * * * * //

dimensions      [0 2 -2 0 0 0 0];

internalField   nonuniform List<scalar> 
400
(
4.14331e-07
-0.000150587
-0.000534669
-0.00107187
-0.0017326
-0.00249408
-0.00318521
-0.00359778
-0.00356555
-0.00293428
-0.00154873
0.000619226
0.00324945
0.00551397
0.00653365
0.00592277
0.00400197
0.00214954
0.00111053
0.00104148
0.000116299
-5.81171e-05
-0.000377064
-0.00076424
-0.00124416
-0.00188829
-0.00270641
-0.00354374
-0.00408023
-0.00393865
-0.00284664
-0.000825054
0.00168921
0.00396079
0.00512459
0.00474298
0.00310288
0.00137464
0.000593045
0.000684086
0.000536417
0.000264947
-7.73465e-05
-0.000559707
-0.00134742
-0.00258081
-0.00421939
-0.00598407
-0.00740288
-0.00794419
-0.00726449
-0.00546227
-0.0028919
-0.00019487
0.00179155
0.00242757
0.00170864
0.000501939
-0.000396253
-0.000392965
0.00115193
0.000741244
0.000191853
-0.000774888
-0.00245129
-0.00493808
-0.00799546
-0.0111209
-0.0137037
-0.0151773
-0.0152072
-0.0138402
-0.0112939
-0.00802939
-0.00475256
-0.00221006
-0.000870739
-0.000706579
-0.00128919
-0.00191852
0.00158333
0.000973723
-2.29051e-05
-0.00192421
-0.00500689
-0.0091804
-0.0139141
-0.0184801
-0.0222165
-0.0246532
-0.0255289
-0.0247231
-0.0223637
-0.0187437
-0.0143049
-0.00965602
-0.00559245
-0.00294926
-0.00219362
-0.00401834
0.00129338
0.000445031
-0.00119739
-0.00430453
-0.00900529
-0.014881
-0.0210731
-0.0267156
-0.0311916
-0.0341789
-0.0355457
-0.0351897
-0.0331971
-0.0297188
-0.0248996
-0.0189612
-0.0125056
-0.00694869
-0.00440125
-0.00652455
-4.82961e-05
-0.00114756
-0.00349953
-0.00779701
-0.0139328
-0.0211147
-0.0282365
-0.0344081
-0.039129
-0.0422323
-0.04372
-0.0436106
-0.0419728
-0.0388789
-0.0343109
-0.0281573
-0.0205392
-0.0127031
-0.00785511
-0.00774831
-0.00245048
-0.00374219
-0.00669868
-0.0119136
-0.0190401
-0.0269822
-0.0345045
-0.0407795
-0.0454511
-0.0484772
-0.0499399
-0.0499312
-0.0485305
-0.0457885
-0.0416624
-0.0359267
-0.0283257
-0.0193712
-0.0118225
-0.00798083
-0.00553765
-0.00691524
-0.0102638
-0.0160221
-0.0236584
-0.0318898
-0.0394516
-0.0456132
-0.0501377
-0.0530578
-0.0544869
-0.054527
-0.0532528
-0.0507259
-0.0469622
-0.0418121
-0.0348679
-0.0259478
-0.0167093
-0.00999478
-0.00873377
-0.0100859
-0.0135978
-0.0195423
-0.0272866
-0.0354874
-0.0429124
-0.04891
-0.0533097
-0.0561677
-0.0575916
-0.0576628
-0.0564444
-0.0540113
-0.0504512
-0.0457605
-0.0396342
-0.0315241
-0.0223214
-0.0143401
-0.0115041
-0.0127579
-0.0162193
-0.0220544
-0.0296072
-0.0375888
-0.0448266
-0.0506994
-0.0550429
-0.0578943
-0.0593366
-0.0594281
-0.0582189
-0.0557889
-0.0522868
-0.0478524
-0.0424311
-0.0353827
-0.0271981
-0.0191795
-0.0135493
-0.0146187
-0.0178559
-0.0233155
-0.030431
-0.0380628
-0.0451178
-0.0509497
-0.055329
-0.0582404
-0.0597281
-0.0598305
-0.0585884
-0.056083
-0.0525155
-0.048138
-0.0432068
-0.0370563
-0.030032
-0.0224173
-0.0148373
-0.0155678
-0.0183518
-0.0232102
-0.0296933
-0.0368787
-0.0437645
-0.04964
-0.0541547
-0.0572008
-0.0587698
-0.0588769
-0.0575576
-0.0549157
-0.051177
-0.0466557
-0.0419654
-0.0363001
-0.0302261
-0.0228959
-0.0154677
-0.015722
-0.0177772
-0.0217462
-0.0273895
-0.0340314
-0.0407503
-0.0467403
-0.0514926
-0.0547679
-0.0564819
-0.0566229
-0.0552012
-0.0523526
-0.0483459
-0.0435816
-0.0387305
-0.0331413
-0.0280995
-0.0202792
-0.0155743
-0.0152981
-0.0163379
-0.0190876
-0.0236529
-0.0296339
-0.0361713
-0.0423355
-0.0474273
-0.0510391
-0.0529798
-0.0531831
-0.0516906
-0.0485911
-0.0442264
-0.0390536
-0.0337816
-0.0280715
-0.0242314
-0.0143849
-0.0152767
-0.01455
-0.0142606
-0.0154258
-0.0186846
-0.0238944
-0.0302311
-0.0366144
-0.0421375
-0.0462009
-0.048489
-0.048866
-0.0473528
-0.0440206
-0.0392486
-0.0335187
-0.0276411
-0.0216292
-0.0180534
-0.00383284
-0.0146619
-0.0136181
-0.0117067
-0.0110809
-0.0129535
-0.0173801
-0.0235338
-0.0301702
-0.036193
-0.0408112
-0.0435783
-0.0442614
-0.0428503
-0.0393761
-0.034185
-0.0276896
-0.0206822
-0.0132761
-0.00678577
0.016053
-0.0145831
-0.012657
-0.00864835
-0.00623451
-0.00690996
-0.0107457
-0.0168177
-0.0237398
-0.0302984
-0.035539
-0.0389033
-0.0400348
-0.0388773
-0.0354478
-0.0298957
-0.0222757
-0.0128726
-0.000688177
0.016695
0.0570639
-0.0117945
-0.0118306
-0.005726
-0.00177494
-0.00176492
-0.00540464
-0.0115751
-0.0188148
-0.0258753
-0.0316872
-0.035662
-0.0373616
-0.036685
-0.0333551
-0.027224
-0.0175415
-0.00314823
0.0204902
0.0607043
0.129821
-0.0295167
-0.0106296
-0.000608779
0.00308088
0.0024483
-0.00155694
-0.00799935
-0.0155532
-0.022976
-0.0291735
-0.0335316
-0.0355877
-0.0352009
-0.0319555
-0.0252274
-0.0128599
0.00942263
0.0511715
0.122878
0.226076
)
;

boundaryField
{
    movingWall
    {
        type            zeroGradient;
    }
    fixedWalls
    {
        type            zeroGradient;
    }
    frontAndBack
    {
        type            empty;
    }
}


// ************************************************************************* //
