/*--------------------------------*- C++ -*----------------------------------*\
| =========                 |                                                 |
| \\      /  F ield         | OpenFOAM: The Open Source CFD Toolbox           |
|  \\    /   O peration     | Version:  2212                                  |
|   \\  /    A nd           | Website:  www.openfoam.com                      |
|    \\/     M anipulation  |                                                 |
\*---------------------------------------------------------------------------*/
FoamFile
{
    version     2.0;
    format      ascii;
    arch        "LSB;label=32;scalar=64";
    class       surfaceScalarField;
    location    "11.8";
    object      phi;
}
// * * * * * * * * * * * * * * * * * * * * * * * * * * * * * * * * * * * * * //

dimensions      [0 3 -1 0 0 0 0];

oriented        oriented;

internalField   nonuniform List<scalar> 
760
(
1.56088e-07
-1.56125e-07
2.93634e-07
-1.37546e-07
3.09998e-07
-1.6364e-08
1.83688e-07
1.2631e-07
-1.20302e-07
3.0399e-07
-6.65926e-07
5.45624e-07
-1.48528e-06
8.1935e-07
-2.49087e-06
1.0056e-06
-3.48036e-06
9.89489e-07
-4.22036e-06
7.39996e-07
-4.54398e-06
3.23625e-07
-4.35365e-06
-1.90331e-07
-3.59375e-06
-7.59901e-07
-2.37897e-06
-1.21478e-06
-9.39995e-07
-1.43898e-06
3.47777e-07
-1.28777e-06
1.08996e-06
-7.42183e-07
1.03309e-06
5.68677e-08
4.61e-07
5.72092e-07
4.61e-07
1.25053e-07
-2.81178e-07
7.46168e-08
-8.71099e-08
-2.97018e-07
3.55271e-07
-1.07891e-06
9.08197e-07
-2.31595e-06
1.54103e-06
-3.92743e-06
2.15711e-06
-5.66235e-06
2.55427e-06
-7.20709e-06
2.55034e-06
-8.337e-06
2.1194e-06
-8.94234e-06
1.34534e-06
-8.97626e-06
3.57542e-07
-8.41625e-06
-7.50343e-07
-7.29366e-06
-1.88249e-06
-5.64204e-06
-2.86639e-06
-3.60581e-06
-3.47521e-06
-1.49022e-06
-3.40337e-06
1.78748e-07
-2.41115e-06
8.59002e-07
-6.23386e-07
5.25714e-07
9.05381e-07
9.86714e-07
-1.27596e-07
-1.53582e-07
-6.33928e-07
4.19222e-07
-1.62494e-06
1.34629e-06
-3.14151e-06
2.42477e-06
-5.05759e-06
3.45711e-06
-7.07347e-06
4.17299e-06
-8.87357e-06
4.35437e-06
-1.02778e-05
3.9546e-06
-1.12346e-05
3.07618e-06
-1.17362e-05
1.8469e-06
-1.17302e-05
3.51582e-07
-1.12713e-05
-1.20927e-06
-1.03386e-05
-2.81521e-06
-8.87791e-06
-4.32706e-06
-6.86963e-06
-5.48349e-06
-4.40324e-06
-5.86975e-06
-1.87874e-06
-4.93565e-06
-8.63907e-08
-2.41574e-06
2.94694e-07
5.24296e-07
1.28141e-06
-5.00533e-07
3.46951e-07
-1.56002e-06
1.4787e-06
-3.11956e-06
2.90583e-06
-5.0815e-06
4.38671e-06
-7.18542e-06
5.56104e-06
-9.12346e-06
6.11102e-06
-1.06933e-05
5.92425e-06
-1.18526e-05
5.11383e-06
-1.26292e-05
3.85282e-06
-1.30578e-05
2.27555e-06
-1.31229e-05
4.16625e-07
-1.28834e-05
-1.44878e-06
-1.23005e-05
-3.39804e-06
-1.12726e-05
-5.35499e-06
-9.66888e-06
-7.08722e-06
-7.36472e-06
-8.17391e-06
-4.3988e-06
-7.90156e-06
-1.37807e-06
-5.43647e-06
1.20738e-07
-9.74511e-07
1.40215e-06
-8.61968e-07
1.20892e-06
-2.36178e-06
2.97851e-06
-4.23292e-06
4.77697e-06
-6.28034e-06
6.43412e-06
-8.2228e-06
7.50351e-06
-9.83758e-06
7.7258e-06
-1.1048e-05
7.13469e-06
-1.18807e-05
5.94647e-06
-1.23973e-05
4.36944e-06
-1.26705e-05
2.54876e-06
-1.27911e-05
5.37212e-07
-1.27454e-05
-1.49444e-06
-1.25248e-05
-3.61872e-06
-1.20501e-05
-5.8296e-06
-1.11354e-05
-8.00196e-06
-9.49262e-06
-9.8167e-06
-6.82232e-06
-1.05719e-05
-3.22304e-06
-9.03575e-06
-2.61166e-07
-3.93638e-06
1.14098e-06
-1.08714e-06
2.29606e-06
-2.78473e-06
4.67611e-06
-4.6786e-06
6.67084e-06
-6.53674e-06
8.29226e-06
-8.13479e-06
9.10156e-06
-9.34175e-06
8.93276e-06
-1.01536e-05
7.94655e-06
-1.06355e-05
6.42836e-06
-1.08776e-05
4.61155e-06
-1.09796e-05
2.65075e-06
-1.10628e-05
6.20423e-07
-1.11133e-05
-1.4439e-06
-1.11475e-05
-3.58462e-06
-1.11363e-05
-5.84078e-06
-1.09265e-05
-8.21171e-06
-1.01913e-05
-1.0552e-05
-8.43617e-06
-1.2327e-05
-5.24511e-06
-1.22268e-05
-1.15868e-06
-8.02281e-06
-1.76979e-08
-1.11126e-06
3.40732e-06
-2.75943e-06
6.32428e-06
-4.45748e-06
8.36889e-06
-5.99359e-06
9.82837e-06
-7.20766e-06
1.03156e-05
-8.03737e-06
9.76247e-06
-8.5205e-06
8.42969e-06
-8.74404e-06
6.6519e-06
-8.81143e-06
4.67894e-06
-8.81937e-06
2.65869e-06
-8.84993e-06
6.50982e-07
-8.92127e-06
-1.37257e-06
-9.05335e-06
-3.45254e-06
-9.25785e-06
-5.63629e-06
-9.47879e-06
-7.99076e-06
-9.48544e-06
-1.05453e-05
-8.75913e-06
-1.30533e-05
-6.54132e-06
-1.44446e-05
-2.42499e-06
-1.21391e-05
-2.44269e-06
-9.36646e-07
4.34397e-06
-2.34904e-06
7.73667e-06
-3.73703e-06
9.75688e-06
-4.91713e-06
1.10085e-05
-5.78837e-06
1.11869e-05
-6.334e-06
1.03081e-05
-6.6112e-06
8.70689e-06
-6.71097e-06
6.75168e-06
-6.72914e-06
4.69711e-06
-6.73838e-06
2.66793e-06
-6.77402e-06
6.86619e-07
-6.85282e-06
-1.29376e-06
-6.99572e-06
-3.30964e-06
-7.23335e-06
-5.39865e-06
-7.58333e-06
-7.64078e-06
-7.95571e-06
-1.01729e-05
-7.94146e-06
-1.30675e-05
-6.72262e-06
-1.56635e-05
-3.58989e-06
-1.52719e-05
-6.03258e-06
-6.26076e-07
4.97004e-06
-1.68978e-06
8.80038e-06
-2.72406e-06
1.07912e-05
-3.56429e-06
1.18487e-05
-4.15498e-06
1.17776e-05
-4.50632e-06
1.06594e-05
-4.67726e-06
8.87782e-06
-4.7461e-06
6.82052e-06
-4.78496e-06
4.73597e-06
-4.837e-06
2.71998e-06
-4.91206e-06
7.61671e-07
-5.01626e-06
-1.18955e-06
-5.15937e-06
-3.16653e-06
-5.3699e-06
-5.18812e-06
-5.70304e-06
-7.30765e-06
-6.17298e-06
-9.70299e-06
-6.56307e-06
-1.26774e-05
-6.13297e-06
-1.60935e-05
-3.92713e-06
-1.74777e-05
-9.95971e-06
-2.3328e-07
5.20332e-06
-8.95047e-07
9.46214e-06
-1.56762e-06
1.14637e-05
-2.09818e-06
1.23793e-05
-2.45909e-06
1.21385e-05
-2.67464e-06
1.0875e-05
-2.79305e-06
8.99623e-06
-2.86752e-06
6.89499e-06
-2.94247e-06
4.81092e-06
-3.03972e-06
2.81723e-06
-3.16197e-06
8.83918e-07
-3.30869e-06
-1.04283e-06
-3.47989e-06
-2.99533e-06
-3.68764e-06
-4.98038e-06
-3.98223e-06
-7.01305e-06
-4.44615e-06
-9.23907e-06
-5.02808e-06
-1.20955e-05
-5.12739e-06
-1.59942e-05
-3.56077e-06
-1.90443e-05
-1.35205e-05
1.63764e-07
5.03956e-06
-7.04647e-08
9.69637e-06
-4.03947e-07
1.17972e-05
-6.5549e-07
1.26308e-05
-8.11033e-07
1.2294e-05
-9.01716e-07
1.09657e-05
-9.66897e-07
9.06141e-06
-1.03842e-06
6.96651e-06
-1.13283e-06
4.90532e-06
-1.25787e-06
2.94228e-06
-1.41613e-06
1.04218e-06
-1.60974e-06
-8.4923e-07
-1.83709e-06
-2.76797e-06
-2.09582e-06
-4.72166e-06
-2.41306e-06
-6.69581e-06
-2.88018e-06
-8.77195e-06
-3.56277e-06
-1.14129e-05
-4.02716e-06
-1.55299e-05
-3.02688e-06
-2.00446e-05
-1.65474e-05
5.02491e-07
4.53707e-06
7.00733e-07
9.49813e-06
7.44134e-07
1.17538e-05
7.79884e-07
1.2595e-05
8.24846e-07
1.2249e-05
8.53718e-07
1.09368e-05
8.46869e-07
9.06826e-06
7.96116e-07
7.01727e-06
7.0225e-07
4.99919e-06
5.66961e-07
3.07757e-06
3.85009e-07
1.22413e-06
1.50205e-07
-6.14424e-07
-1.38989e-07
-2.47877e-06
-4.89209e-07
-4.37144e-06
-9.03958e-07
-6.28106e-06
-1.42658e-06
-8.24933e-06
-2.20456e-06
-1.06349e-05
-2.95402e-06
-1.47804e-05
-2.46097e-06
-2.05377e-05
-1.90083e-05
7.59806e-07
3.77726e-06
1.35961e-06
8.89833e-06
1.75411e-06
1.13593e-05
2.08519e-06
1.2264e-05
2.35975e-06
1.19745e-05
2.54766e-06
1.07489e-05
2.64088e-06
8.97505e-06
2.65009e-06
7.00805e-06
2.58924e-06
5.06004e-06
2.46466e-06
3.20215e-06
2.26866e-06
1.42013e-06
1.98716e-06
-3.32927e-07
1.62085e-06
-2.11246e-06
1.16485e-06
-3.91544e-06
6.14945e-07
-5.73115e-06
-7.99333e-08
-7.55445e-06
-9.53681e-07
-9.76117e-06
-1.91681e-06
-1.38173e-05
-1.92414e-06
-2.05304e-05
-2.09325e-05
8.75572e-07
2.90169e-06
1.81909e-06
7.95481e-06
2.56418e-06
1.06142e-05
3.20829e-06
1.16199e-05
3.7589e-06
1.14239e-05
4.17284e-06
1.0335e-05
4.43429e-06
8.7136e-06
4.5572e-06
6.88515e-06
4.56435e-06
5.05289e-06
4.47068e-06
3.29582e-06
4.27396e-06
1.61685e-06
3.9415e-06
-4.63272e-10
3.49412e-06
-1.66509e-06
2.9062e-06
-3.32752e-06
2.17905e-06
-5.004e-06
1.33187e-06
-6.70727e-06
2.74372e-07
-8.70367e-06
-9.53121e-07
-1.25898e-05
-1.42487e-06
-2.00586e-05
-2.23573e-05
8.11453e-07
2.09024e-06
1.96508e-06
6.80118e-06
3.01276e-06
9.56654e-06
3.99085e-06
1.06418e-05
4.87246e-06
1.05423e-05
5.5916e-06
9.61582e-06
6.10916e-06
8.19603e-06
6.4281e-06
6.56621e-06
6.56908e-06
4.9119e-06
6.54991e-06
3.31499e-06
6.36868e-06
1.79808e-06
6.0227e-06
3.45522e-07
5.47888e-06
-1.12127e-06
4.74477e-06
-2.59341e-06
3.81256e-06
-4.07179e-06
2.71134e-06
-5.60605e-06
1.40178e-06
-7.39411e-06
-1.48896e-07
-1.10391e-05
-9.09016e-07
-1.92985e-05
-2.32663e-05
5.81468e-07
1.50877e-06
1.77031e-06
5.61234e-06
3.11552e-06
8.22134e-06
4.47325e-06
9.28404e-06
5.74601e-06
9.2695e-06
6.83522e-06
8.52662e-06
7.67544e-06
7.35581e-06
8.25397e-06
5.98768e-06
8.58304e-06
4.58282e-06
8.67922e-06
3.21881e-06
8.54908e-06
1.92822e-06
8.18971e-06
7.04894e-07
7.55695e-06
-4.88513e-07
6.6683e-06
-1.70475e-06
5.51113e-06
-2.91462e-06
4.1265e-06
-4.22143e-06
2.58857e-06
-5.85617e-06
9.69129e-07
-9.41966e-06
-1.38899e-07
-1.81905e-05
-2.34052e-05
1.5434e-07
1.35443e-06
1.04872e-06
4.71796e-06
2.53358e-06
6.73648e-06
4.26371e-06
7.5539e-06
5.99375e-06
7.53946e-06
7.53592e-06
6.98445e-06
8.78752e-06
6.10421e-06
9.71871e-06
5.05649e-06
1.03245e-05
3.97704e-06
1.06161e-05
2.92716e-06
1.05996e-05
1.9448e-06
1.02802e-05
1.02423e-06
9.61173e-06
1.79992e-07
8.61674e-06
-7.09764e-07
7.28499e-06
-1.58287e-06
5.66871e-06
-2.60516e-06
3.92917e-06
-4.11663e-06
2.25074e-06
-7.74123e-06
6.56944e-07
-1.65967e-05
-2.27483e-05
-5.19158e-07
1.87359e-06
2.03736e-07
3.99507e-06
1.76794e-06
5.17228e-06
3.84156e-06
5.48028e-06
6.00734e-06
5.37368e-06
7.97823e-06
5.01356e-06
9.6176e-06
4.46484e-06
1.08838e-05
3.79026e-06
1.17594e-05
3.10152e-06
1.22602e-05
2.42628e-06
1.23899e-05
1.81517e-06
1.21679e-05
1.24616e-06
1.16187e-05
7.29196e-07
1.07125e-05
1.96523e-07
9.45385e-06
-3.24271e-07
7.91678e-06
-1.06808e-06
6.28713e-06
-2.48698e-06
4.46685e-06
-5.92095e-06
2.05977e-06
-1.41896e-05
-2.06885e-05
-4.18158e-06
6.05517e-06
-3.64417e-06
3.45765e-06
-1.2438e-06
2.77191e-06
1.5627e-06
2.67378e-06
4.31133e-06
2.62505e-06
6.85498e-06
2.4699e-06
9.07995e-06
2.23987e-06
1.09257e-05
1.9445e-06
1.23736e-05
1.65359e-06
1.34506e-05
1.34928e-06
1.41737e-05
1.0921e-06
1.45876e-05
8.32243e-07
1.46799e-05
6.36881e-07
1.44596e-05
4.1688e-07
1.39227e-05
2.12636e-07
1.30851e-05
-2.3051e-07
1.19347e-05
-1.33661e-06
1.01167e-05
-4.10292e-06
5.6396e-06
-9.71246e-06
-1.50489e-05
6.05517e-06
9.51282e-06
1.22847e-05
1.49585e-05
1.75836e-05
2.00535e-05
2.22933e-05
2.42378e-05
2.58914e-05
2.72407e-05
2.83328e-05
2.9165e-05
2.98019e-05
3.02188e-05
3.04314e-05
3.02009e-05
2.88643e-05
2.47614e-05
1.50489e-05
)
;

boundaryField
{
    movingWall
    {
        type            calculated;
        value           uniform 0;
    }
    fixedWalls
    {
        type            calculated;
        value           uniform 0;
    }
    frontAndBack
    {
        type            empty;
        value           nonuniform List<scalar> 0();
    }
}


// ************************************************************************* //
