/*--------------------------------*- C++ -*----------------------------------*\
| =========                 |                                                 |
| \\      /  F ield         | OpenFOAM: The Open Source CFD Toolbox           |
|  \\    /   O peration     | Version:  2212                                  |
|   \\  /    A nd           | Website:  www.openfoam.com                      |
|    \\/     M anipulation  |                                                 |
\*---------------------------------------------------------------------------*/
FoamFile
{
    version     2.0;
    format      ascii;
    arch        "LSB;label=32;scalar=64";
    class       volVectorField;
    location    "11.8";
    object      U;
}
// * * * * * * * * * * * * * * * * * * * * * * * * * * * * * * * * * * * * * //

dimensions      [0 1 -1 0 0 0 0];

internalField   nonuniform List<vector> 
400
(
(0.00168185 -0.00168373 0)
(0.00483884 -0.00189225 0)
(0.00659132 -0.00120073 0)
(0.005675 -0.000575138 0)
(0.00157237 0.00018397 0)
(-0.00682909 0.00173938 0)
(-0.0206084 0.00478645 0)
(-0.0395418 0.00873628 0)
(-0.0608124 0.0112929 0)
(-0.0791393 0.0105126 0)
(-0.0898145 0.0067745 0)
(-0.0904647 0.00166883 0)
(-0.0802269 -0.00361673 0)
(-0.059994 -0.00827523 0)
(-0.0335204 -0.0108474 0)
(-0.00529172 -0.00979538 0)
(0.0167249 -0.00477292 0)
(0.0244715 0.00277709 0)
(0.0161791 0.00647246 0)
(0.0043166 0.00471724 0)
(0.00172058 -0.00506525 0)
(0.00316291 -0.00403256 0)
(-0.000416786 0.00058772 0)
(-0.0113297 0.00644176 0)
(-0.0314263 0.0140504 0)
(-0.061151 0.0237746 0)
(-0.096849 0.0330628 0)
(-0.131463 0.0370939 0)
(-0.158977 0.0335183 0)
(-0.176109 0.0234017 0)
(-0.181455 0.00910907 0)
(-0.175084 -0.00699076 0)
(-0.157565 -0.0231754 0)
(-0.129653 -0.0369155 0)
(-0.0936156 -0.044567 0)
(-0.0521943 -0.0418396 0)
(-0.0113993 -0.0263343 0)
(0.0168907 -0.00127844 0)
(0.0178728 0.0162246 0)
(0.00554233 0.0148204 0)
(-0.000239502 -0.00578074 0)
(-0.00538102 0.00080148 0)
(-0.0196096 0.0142996 0)
(-0.0445051 0.031237 0)
(-0.0803438 0.0494476 0)
(-0.122209 0.0643234 0)
(-0.162357 0.0705495 0)
(-0.195281 0.0660312 0)
(-0.218874 0.0521926 0)
(-0.232543 0.0315343 0)
(-0.236299 0.00641574 0)
(-0.230813 -0.0211151 0)
(-0.216398 -0.0488758 0)
(-0.192551 -0.0732303 0)
(-0.159012 -0.0890301 0)
(-0.115745 -0.0892323 0)
(-0.0645643 -0.0670301 0)
(-0.0138209 -0.0226638 0)
(0.00948187 0.0179198 0)
(0.00415547 0.0235809 0)
(-0.00347201 0.000452847 0)
(-0.0175154 0.0172406 0)
(-0.0435181 0.0415025 0)
(-0.0796865 0.0681984 0)
(-0.122966 0.0911661 0)
(-0.165863 0.103854 0)
(-0.201936 0.102909 0)
(-0.229262 0.0896757 0)
(-0.248102 0.0673286 0)
(-0.259057 0.0385804 0)
(-0.262965 0.00531641 0)
(-0.260632 -0.03112 0)
(-0.251998 -0.0684596 0)
(-0.236018 -0.103749 0)
(-0.210704 -0.131497 0)
(-0.173355 -0.142897 0)
(-0.121407 -0.125769 0)
(-0.0568461 -0.0708537 0)
(-0.000986673 0.0035677 0)
(0.00474231 0.0282417 0)
(-0.00666312 0.014783 0)
(-0.0287318 0.0441131 0)
(-0.0632947 0.0771002 0)
(-0.10447 0.108929 0)
(-0.147294 0.13122 0)
(-0.184597 0.138208 0)
(-0.212939 0.129514 0)
(-0.232724 0.108754 0)
(-0.245243 0.079802 0)
(-0.25222 0.0454491 0)
(-0.255339 0.00723932 0)
(-0.255521 -0.0340013 0)
(-0.25254 -0.0770893 0)
(-0.245857 -0.120695 0)
(-0.232659 -0.160832 0)
(-0.208334 -0.189043 0)
(-0.16683 -0.189991 0)
(-0.103454 -0.142885 0)
(-0.0221828 -0.0388532 0)
(0.00738228 0.0271027 0)
(-0.00851167 0.0348754 0)
(-0.0351809 0.076645 0)
(-0.0731007 0.114964 0)
(-0.113277 0.147718 0)
(-0.150545 0.166052 0)
(-0.179411 0.165989 0)
(-0.198939 0.149777 0)
(-0.210688 0.122516 0)
(-0.216639 0.088552 0)
(-0.219271 0.0508732 0)
(-0.220541 0.0109545 0)
(-0.221441 -0.0307616 0)
(-0.222172 -0.0747276 0)
(-0.222844 -0.121301 0)
(-0.22127 -0.169248 0)
(-0.212365 -0.213081 0)
(-0.188044 -0.238608 0)
(-0.1397 -0.218556 0)
(-0.062854 -0.118948 0)
(0.00584973 0.0142045 0)
(-0.00829408 0.0570106 0)
(-0.0353471 0.110022 0)
(-0.0718474 0.150514 0)
(-0.107093 0.18121 0)
(-0.136733 0.193905 0)
(-0.157142 0.18651 0)
(-0.169056 0.163345 0)
(-0.174597 0.130558 0)
(-0.176172 0.0929099 0)
(-0.176273 0.0534135 0)
(-0.176387 0.0133139 0)
(-0.177188 -0.0273148 0)
(-0.179219 -0.0695854 0)
(-0.183026 -0.11474 0)
(-0.187972 -0.163875 0)
(-0.19044 -0.215844 0)
(-0.182549 -0.261694 0)
(-0.154297 -0.275211 0)
(-0.099413 -0.205931 0)
(-0.00890856 -0.0146248 0)
(-0.00613695 0.07761 0)
(-0.0297986 0.140579 0)
(-0.0614394 0.181255 0)
(-0.0899154 0.208375 0)
(-0.111929 0.214966 0)
(-0.125469 0.200639 0)
(-0.132162 0.171405 0)
(-0.134317 0.13424 0)
(-0.134382 0.0941226 0)
(-0.134284 0.0537552 0)
(-0.134691 0.0138632 0)
(-0.135784 -0.0258936 0)
(-0.138016 -0.0664935 0)
(-0.142078 -0.109114 0)
(-0.148588 -0.155704 0)
(-0.15625 -0.208619 0)
(-0.159103 -0.265944 0)
(-0.146772 -0.308177 0)
(-0.112271 -0.277246 0)
(-0.0309703 -0.0753458 0)
(-0.00273099 0.0936328 0)
(-0.0204243 0.165675 0)
(-0.045165 0.205652 0)
(-0.0663652 0.228648 0)
(-0.0816378 0.229611 0)
(-0.0901315 0.209624 0)
(-0.0937665 0.175871 0)
(-0.0946812 0.135831 0)
(-0.094961 0.0944828 0)
(-0.0957583 0.0540373 0)
(-0.0971092 0.0145942 0)
(-0.0989193 -0.02459 0)
(-0.101355 -0.0642451 0)
(-0.104921 -0.10502 0)
(-0.110765 -0.148504 0)
(-0.119623 -0.198624 0)
(-0.128374 -0.259851 0)
(-0.126543 -0.323511 0)
(-0.107495 -0.334814 0)
(-0.0373553 -0.163465 0)
(0.00121931 0.102782 0)
(-0.00894661 0.183521 0)
(-0.0256533 0.22321 0)
(-0.0396559 0.242836 0)
(-0.0491382 0.239602 0)
(-0.0540133 0.215628 0)
(-0.0559849 0.178871 0)
(-0.0566997 0.137173 0)
(-0.0576622 0.0954153 0)
(-0.0594055 0.0552777 0)
(-0.0616991 0.0163109 0)
(-0.0643998 -0.0224964 0)
(-0.0674984 -0.0617497 0)
(-0.0711732 -0.101648 0)
(-0.076356 -0.142857 0)
(-0.0846167 -0.189001 0)
(-0.0960824 -0.24842 0)
(-0.100663 -0.32438 0)
(-0.0951829 -0.372282 0)
(-0.0309265 -0.242621 0)
(0.00511924 0.103949 0)
(0.00295741 0.193123 0)
(-0.00539195 0.233708 0)
(-0.0125106 0.250871 0)
(-0.0169028 0.244787 0)
(-0.0187908 0.21857 0)
(-0.0194801 0.180507 0)
(-0.0200094 0.13843 0)
(-0.0213084 0.0969708 0)
(-0.0235448 0.0574289 0)
(-0.026434 0.0190833 0)
(-0.0299177 -0.0191709 0)
(-0.0340123 -0.0579879 0)
(-0.0386561 -0.0974181 0)
(-0.0443944 -0.137378 0)
(-0.0524538 -0.18025 0)
(-0.0657696 -0.235722 0)
(-0.0742268 -0.31816 0)
(-0.0812036 -0.396789 0)
(-0.0229436 -0.307183 0)
(0.00845926 0.0974742 0)
(0.0142232 0.194117 0)
(0.0141062 0.237232 0)
(0.0137117 0.253652 0)
(0.0143347 0.246574 0)
(0.0155318 0.219866 0)
(0.0163915 0.181816 0)
(0.0164453 0.140101 0)
(0.0153076 0.0991588 0)
(0.0130307 0.0602292 0)
(0.00986288 0.0226278 0)
(0.00575444 -0.0147546 0)
(0.000562285 -0.0527023 0)
(-0.00556385 -0.0913109 0)
(-0.0130323 -0.130208 0)
(-0.0219795 -0.170392 0)
(-0.03772 -0.220768 0)
(-0.0487297 -0.304521 0)
(-0.0679046 -0.408532 0)
(-0.0144592 -0.360066 0)
(0.0103313 0.0844933 0)
(0.0234233 0.18652 0)
(0.0310883 0.233355 0)
(0.0370192 0.250197 0)
(0.0426822 0.243359 0)
(0.0476382 0.217574 0)
(0.0510765 0.180811 0)
(0.0527533 0.140404 0)
(0.0526228 0.100639 0)
(0.0508944 0.0628268 0)
(0.0477851 0.0264584 0)
(0.043177 -0.00952232 0)
(0.0369027 -0.0460063 0)
(0.0290862 -0.0831476 0)
(0.0189294 -0.120578 0)
(0.00760224 -0.158523 0)
(-0.0118139 -0.204481 0)
(-0.0242359 -0.286524 0)
(-0.0558425 -0.411038 0)
(-0.00613705 -0.401912 0)
(0.00988004 0.0672394 0)
(0.0290357 0.170709 0)
(0.0443645 0.222262 0)
(0.0569095 0.241362 0)
(0.0682058 0.236436 0)
(0.0778956 0.213074 0)
(0.0851194 0.17878 0)
(0.0895767 0.140438 0)
(0.0913437 0.102275 0)
(0.0907202 0.0658348 0)
(0.0880357 0.030981 0)
(0.0829865 -0.0033035 0)
(0.0754709 -0.0375521 0)
(0.065777 -0.0723394 0)
(0.0525225 -0.107469 0)
(0.0375862 -0.142822 0)
(0.0131408 -0.184307 0)
(8.70944e-05 -0.263284 0)
(-0.0447941 -0.406737 0)
(0.0027667 -0.436288 0)
(0.00693121 0.0493983 0)
(0.029371 0.148982 0)
(0.0511241 0.203669 0)
(0.0700069 0.224592 0)
(0.0874871 0.221736 0)
(0.103186 0.201578 0)
(0.11586 0.170983 0)
(0.124829 0.13609 0)
(0.130003 0.10089 0)
(0.131627 0.0670574 0)
(0.129964 0.0348449 0)
(0.12504 0.00342773 0)
(0.116408 -0.0274741 0)
(0.104673 -0.0587181 0)
(0.0875753 -0.0903462 0)
(0.068381 -0.122968 0)
(0.038311 -0.160888 0)
(0.0238687 -0.237183 0)
(-0.0344353 -0.398982 0)
(0.0134767 -0.464443 0)
(0.00238762 0.0346256 0)
(0.0236464 0.123909 0)
(0.0509699 0.17997 0)
(0.076708 0.202974 0)
(0.101379 0.202666 0)
(0.124268 0.186264 0)
(0.143728 0.160207 0)
(0.158541 0.129773 0)
(0.16829 0.098578 0)
(0.173184 0.0683083 0)
(0.17316 0.0395619 0)
(0.168932 0.0119334 0)
(0.159094 -0.0149191 0)
(0.145358 -0.041729 0)
(0.124049 -0.0687758 0)
(0.100503 -0.0975807 0)
(0.0646407 -0.132736 0)
(0.0470167 -0.207476 0)
(-0.0226993 -0.387095 0)
(0.0285354 -0.485566 0)
(-0.00342646 0.028611 0)
(0.0100757 0.101504 0)
(0.0371215 0.14871 0)
(0.0689934 0.169481 0)
(0.101895 0.170704 0)
(0.133622 0.158414 0)
(0.161626 0.137977 0)
(0.184178 0.113572 0)
(0.200232 0.0882811 0)
(0.21016 0.0636357 0)
(0.213087 0.0403807 0)
(0.210834 0.0183991 0)
(0.200567 -0.00268413 0)
(0.185932 -0.0233251 0)
(0.161111 -0.0439944 0)
(0.134486 -0.0677583 0)
(0.0929454 -0.10171 0)
(0.0698848 -0.180027 0)
(-0.0043628 -0.370059 0)
(0.0521636 -0.491644 0)
(-0.0140133 0.0185149 0)
(-0.00751623 0.0881755 0)
(0.0192244 0.1242 0)
(0.0564646 0.13733 0)
(0.0976263 0.136924 0)
(0.138017 0.127743 0)
(0.174278 0.113085 0)
(0.20413 0.0953046 0)
(0.226031 0.0768295 0)
(0.241129 0.0586776 0)
(0.247165 0.0418018 0)
(0.248082 0.0261045 0)
(0.238741 0.0117377 0)
(0.226921 -0.002056 0)
(0.201916 -0.0160983 0)
(0.177924 -0.0350354 0)
(0.133568 -0.0678137 0)
(0.107847 -0.146008 0)
(0.0374756 -0.32612 0)
(0.0923688 -0.455871 0)
(-0.106021 0.0824163 0)
(-0.077761 0.0689894 0)
(-0.0485677 0.0733714 0)
(0.00378461 0.0778934 0)
(0.0573051 0.0782287 0)
(0.110043 0.073965 0)
(0.157217 0.0666296 0)
(0.199586 0.0572242 0)
(0.231701 0.047547 0)
(0.259857 0.037889 0)
(0.275586 0.02922 0)
(0.290741 0.0212323 0)
(0.291092 0.0144733 0)
(0.2952 0.00808893 0)
(0.278893 0.00111989 0)
(0.271673 -0.0100175 0)
(0.232357 -0.0355719 0)
(0.218147 -0.0954207 0)
(0.150209 -0.229723 0)
(0.170672 -0.341455 0)
(0.129968 0.103744 0)
(0.158319 0.0752269 0)
(0.212163 0.0532265 0)
(0.270671 0.0416218 0)
(0.323248 0.0359125 0)
(0.375692 0.0319484 0)
(0.42029 0.0289164 0)
(0.465612 0.025581 0)
(0.49871 0.0229029 0)
(0.533962 0.0197104 0)
(0.553401 0.0175473 0)
(0.579211 0.0146093 0)
(0.585348 0.0131642 0)
(0.603686 0.0103451 0)
(0.595104 0.00938267 0)
(0.603603 0.00499905 0)
(0.567792 8.86408e-05 0)
(0.547612 -0.0183163 0)
(0.435689 -0.0504144 0)
(0.336753 -0.101385 0)
)
;

boundaryField
{
    movingWall
    {
        type            fixedValue;
        value           uniform (1 0 0);
    }
    fixedWalls
    {
        type            noSlip;
    }
    frontAndBack
    {
        type            empty;
    }
}


// ************************************************************************* //
