/*--------------------------------*- C++ -*----------------------------------*\
| =========                 |                                                 |
| \\      /  F ield         | OpenFOAM: The Open Source CFD Toolbox           |
|  \\    /   O peration     | Version:  2212                                  |
|   \\  /    A nd           | Website:  www.openfoam.com                      |
|    \\/     M anipulation  |                                                 |
\*---------------------------------------------------------------------------*/
FoamFile
{
    version     2.0;
    format      ascii;
    arch        "LSB;label=32;scalar=64";
    class       surfaceScalarField;
    location    "9.8";
    object      phi;
}
// * * * * * * * * * * * * * * * * * * * * * * * * * * * * * * * * * * * * * //

dimensions      [0 3 -1 0 0 0 0];

oriented        oriented;

internalField   nonuniform List<scalar> 
760
(
1.56079e-07
-1.56119e-07
2.93617e-07
-1.37538e-07
3.09977e-07
-1.63601e-08
1.83667e-07
1.26309e-07
-1.20318e-07
3.03985e-07
-6.65929e-07
5.45611e-07
-1.48525e-06
8.19326e-07
-2.49083e-06
1.00557e-06
-3.48029e-06
9.89468e-07
-4.22028e-06
7.39991e-07
-4.54392e-06
3.23634e-07
-4.35362e-06
-1.90303e-07
-3.59375e-06
-7.59864e-07
-2.37901e-06
-1.21474e-06
-9.40065e-07
-1.43895e-06
3.47693e-07
-1.28776e-06
1.08989e-06
-7.42198e-07
1.03305e-06
5.68372e-08
4.60987e-07
5.72068e-07
4.60987e-07
1.25039e-07
-2.81158e-07
7.45911e-08
-8.70904e-08
-2.97043e-07
3.55274e-07
-1.07891e-06
9.08181e-07
-2.31592e-06
1.54099e-06
-3.92736e-06
2.15705e-06
-5.66224e-06
2.5542e-06
-7.20694e-06
2.55028e-06
-8.33683e-06
2.11936e-06
-8.94218e-06
1.34534e-06
-8.97611e-06
3.57568e-07
-8.41613e-06
-7.50286e-07
-7.29358e-06
-1.88241e-06
-5.64201e-06
-2.86631e-06
-3.60583e-06
-3.47513e-06
-1.49026e-06
-3.40332e-06
1.78685e-07
-2.41115e-06
8.58957e-07
-6.23435e-07
5.25696e-07
9.05326e-07
9.86684e-07
-1.27608e-07
-1.5355e-07
-6.3394e-07
4.19242e-07
-1.62493e-06
1.34627e-06
-3.14146e-06
2.42471e-06
-5.05748e-06
3.45702e-06
-7.0733e-06
4.17287e-06
-8.87336e-06
4.35426e-06
-1.02776e-05
3.95451e-06
-1.12344e-05
3.07612e-06
-1.17359e-05
1.84689e-06
-1.173e-05
3.51621e-07
-1.12711e-05
-1.20919e-06
-1.03384e-05
-2.81509e-06
-8.87776e-06
-4.32693e-06
-6.86953e-06
-5.48336e-06
-4.4032e-06
-5.86965e-06
-1.87875e-06
-4.9356e-06
-8.64144e-08
-2.41577e-06
2.94685e-07
5.24227e-07
1.28137e-06
-5.0053e-07
3.4698e-07
-1.55999e-06
1.4787e-06
-3.11949e-06
2.90577e-06
-5.08137e-06
4.38659e-06
-7.18523e-06
5.56088e-06
-9.1232e-06
6.11084e-06
-1.0693e-05
5.92408e-06
-1.18522e-05
5.1137e-06
-1.26288e-05
3.85273e-06
-1.30575e-05
2.27552e-06
-1.31225e-05
4.16673e-07
-1.2883e-05
-1.44868e-06
-1.23002e-05
-3.39789e-06
-1.12723e-05
-5.35481e-06
-9.66868e-06
-7.08703e-06
-7.36458e-06
-8.17374e-06
-4.39874e-06
-7.90144e-06
-1.37807e-06
-5.43644e-06
1.20729e-07
-9.74569e-07
1.4021e-06
-8.61947e-07
1.20893e-06
-2.36171e-06
2.97847e-06
-4.23279e-06
4.77684e-06
-6.28014e-06
6.43394e-06
-8.22254e-06
7.50328e-06
-9.83727e-06
7.72557e-06
-1.10477e-05
7.13448e-06
-1.18803e-05
5.9463e-06
-1.23969e-05
4.36932e-06
-1.26701e-05
2.54872e-06
-1.27906e-05
5.37259e-07
-1.2745e-05
-1.49432e-06
-1.25244e-05
-3.61853e-06
-1.20498e-05
-5.82937e-06
-1.11351e-05
-8.00171e-06
-9.4924e-06
-9.81646e-06
-6.82218e-06
-1.05717e-05
-3.22299e-06
-9.03563e-06
-2.61174e-07
-3.93638e-06
1.14092e-06
-1.0871e-06
2.29603e-06
-2.78464e-06
4.67601e-06
-4.67844e-06
6.67065e-06
-6.53651e-06
8.29201e-06
-8.1345e-06
9.10127e-06
-9.3414e-06
8.93247e-06
-1.01532e-05
7.9463e-06
-1.06351e-05
6.42815e-06
-1.08771e-05
4.6114e-06
-1.09791e-05
2.65068e-06
-1.10623e-05
6.20461e-07
-1.11129e-05
-1.44376e-06
-1.1147e-05
-3.58439e-06
-1.11359e-05
-5.84049e-06
-1.09262e-05
-8.2114e-06
-1.0191e-05
-1.05517e-05
-8.43597e-06
-1.23267e-05
-5.24499e-06
-1.22266e-05
-1.15866e-06
-8.02271e-06
-1.77391e-08
-1.11121e-06
3.40724e-06
-2.75932e-06
6.32412e-06
-4.45731e-06
8.36863e-06
-5.99336e-06
9.82805e-06
-7.20737e-06
1.03153e-05
-8.03702e-06
9.76213e-06
-8.5201e-06
8.42937e-06
-8.74359e-06
6.65163e-06
-8.81093e-06
4.67874e-06
-8.81883e-06
2.65858e-06
-8.84937e-06
6.51004e-07
-8.92072e-06
-1.37241e-06
-9.05285e-06
-3.45226e-06
-9.25742e-06
-5.63592e-06
-9.47844e-06
-7.99037e-06
-9.48516e-06
-1.05449e-05
-8.7589e-06
-1.3053e-05
-6.54116e-06
-1.44444e-05
-2.42493e-06
-1.21389e-05
-2.44267e-06
-9.36598e-07
4.34384e-06
-2.34893e-06
7.73645e-06
-3.73687e-06
9.75657e-06
-4.91691e-06
1.10081e-05
-5.7881e-06
1.11865e-05
-6.33367e-06
1.03077e-05
-6.61082e-06
8.70652e-06
-6.71053e-06
6.75134e-06
-6.72863e-06
4.69685e-06
-6.73783e-06
2.66778e-06
-6.77344e-06
6.86618e-07
-6.85225e-06
-1.29359e-06
-6.99519e-06
-3.30932e-06
-7.23289e-06
-5.39822e-06
-7.58297e-06
-7.64029e-06
-7.95543e-06
-1.01725e-05
-7.94125e-06
-1.30671e-05
-6.72246e-06
-1.56631e-05
-3.58978e-06
-1.52716e-05
-6.03245e-06
-6.26037e-07
4.96988e-06
-1.68969e-06
8.80011e-06
-2.72392e-06
1.07908e-05
-3.56411e-06
1.18483e-05
-4.15475e-06
1.17771e-05
-4.50605e-06
1.0659e-05
-4.67693e-06
8.8774e-06
-4.74571e-06
6.82013e-06
-4.78451e-06
4.73564e-06
-4.83651e-06
2.71978e-06
-4.91154e-06
7.61644e-07
-5.01575e-06
-1.18939e-06
-5.15888e-06
-3.16619e-06
-5.36947e-06
-5.18763e-06
-5.70269e-06
-7.30708e-06
-6.17273e-06
-9.70243e-06
-6.5629e-06
-1.2677e-05
-6.13284e-06
-1.60932e-05
-3.92704e-06
-1.74774e-05
-9.95949e-06
-2.33258e-07
5.20313e-06
-8.94991e-07
9.46184e-06
-1.56753e-06
1.14633e-05
-2.09806e-06
1.23788e-05
-2.45893e-06
1.2138e-05
-2.67445e-06
1.08745e-05
-2.79282e-06
8.99577e-06
-2.86724e-06
6.89455e-06
-2.94215e-06
4.81055e-06
-3.03937e-06
2.817e-06
-3.16159e-06
8.83868e-07
-3.3083e-06
-1.04268e-06
-3.47952e-06
-2.99497e-06
-3.68729e-06
-4.97986e-06
-3.98194e-06
-7.01242e-06
-4.44594e-06
-9.23843e-06
-5.02796e-06
-1.2095e-05
-5.1273e-06
-1.59939e-05
-3.56071e-06
-1.9044e-05
-1.35202e-05
1.63762e-07
5.03937e-06
-7.04491e-08
9.69605e-06
-4.03913e-07
1.17968e-05
-6.5544e-07
1.26303e-05
-8.10964e-07
1.22935e-05
-9.01627e-07
1.09652e-05
-9.66785e-07
9.06093e-06
-1.03829e-06
6.96605e-06
-1.13267e-06
4.90494e-06
-1.2577e-06
2.94203e-06
-1.41595e-06
1.04211e-06
-1.60953e-06
-8.49089e-07
-1.83688e-06
-2.76762e-06
-2.0956e-06
-4.72114e-06
-2.41287e-06
-6.69516e-06
-2.88004e-06
-8.77126e-06
-3.5627e-06
-1.14123e-05
-4.02712e-06
-1.55294e-05
-3.02685e-06
-2.00443e-05
-1.65471e-05
5.02467e-07
4.5369e-06
7.00704e-07
9.49781e-06
7.44103e-07
1.17534e-05
7.79854e-07
1.25946e-05
8.24817e-07
1.22486e-05
8.53691e-07
1.09363e-05
8.46841e-07
9.06777e-06
7.96084e-07
7.01681e-06
7.02216e-07
4.99881e-06
5.66928e-07
3.07732e-06
3.84985e-07
1.22406e-06
1.50197e-07
-6.143e-07
-1.38975e-07
-2.47845e-06
-4.89171e-07
-4.37094e-06
-9.03903e-07
-6.28042e-06
-1.42653e-06
-8.24863e-06
-2.20455e-06
-1.06343e-05
-2.95403e-06
-1.47799e-05
-2.46097e-06
-2.05373e-05
-1.9008e-05
7.5976e-07
3.77714e-06
1.35954e-06
8.89804e-06
1.75402e-06
1.13589e-05
2.08508e-06
1.22635e-05
2.35962e-06
1.1974e-05
2.54752e-06
1.07484e-05
2.64071e-06
8.97458e-06
2.64989e-06
7.00762e-06
2.58902e-06
5.05968e-06
2.46443e-06
3.20191e-06
2.26843e-06
1.42005e-06
1.98696e-06
-3.32823e-07
1.62068e-06
-2.11217e-06
1.16472e-06
-3.91498e-06
6.14856e-07
-5.73056e-06
-7.9989e-08
-7.55379e-06
-9.53738e-07
-9.76053e-06
-1.91687e-06
-1.38168e-05
-1.92416e-06
-2.053e-05
-2.09322e-05
8.75512e-07
2.90163e-06
1.81898e-06
7.95457e-06
2.56403e-06
1.06139e-05
3.2081e-06
1.16194e-05
3.75868e-06
1.14234e-05
4.17258e-06
1.03345e-05
4.43399e-06
8.71317e-06
4.55686e-06
6.88476e-06
4.56397e-06
5.05257e-06
4.47028e-06
3.2956e-06
4.27355e-06
1.61678e-06
3.94111e-06
-3.82422e-10
3.49378e-06
-1.66483e-06
2.90591e-06
-3.32712e-06
2.17882e-06
-5.00347e-06
1.33171e-06
-6.70667e-06
2.74256e-07
-8.70308e-06
-9.53214e-07
-1.25893e-05
-1.42492e-06
-2.00583e-05
-2.23571e-05
8.11393e-07
2.09024e-06
1.96494e-06
6.80102e-06
3.01257e-06
9.56625e-06
3.99061e-06
1.06414e-05
4.87217e-06
1.05419e-05
5.59125e-06
9.61543e-06
6.10877e-06
8.19566e-06
6.42765e-06
6.56588e-06
6.56859e-06
4.91163e-06
6.54938e-06
3.31481e-06
6.36815e-06
1.79802e-06
6.02218e-06
3.45587e-07
5.4784e-06
-1.12105e-06
4.74435e-06
-2.59307e-06
3.81222e-06
-4.07135e-06
2.7111e-06
-5.60554e-06
1.40161e-06
-7.3936e-06
-1.4898e-07
-1.10388e-05
-9.09078e-07
-1.92982e-05
-2.32662e-05
5.81423e-07
1.50882e-06
1.77019e-06
5.61225e-06
3.11532e-06
8.22112e-06
4.47297e-06
9.28375e-06
5.74567e-06
9.26918e-06
6.83481e-06
8.52629e-06
7.67496e-06
7.3555e-06
8.25343e-06
5.98741e-06
8.58246e-06
4.5826e-06
8.67859e-06
3.21867e-06
8.54844e-06
1.92817e-06
8.18908e-06
7.04946e-07
7.55637e-06
-4.88347e-07
6.66778e-06
-1.70448e-06
5.51071e-06
-2.91427e-06
4.1262e-06
-4.22103e-06
2.58836e-06
-5.85576e-06
9.68977e-07
-9.41937e-06
-1.38967e-07
-1.81903e-05
-2.34052e-05
1.54315e-07
1.3545e-06
1.04862e-06
4.71794e-06
2.5334e-06
6.73635e-06
4.26345e-06
7.5537e-06
5.9934e-06
7.53922e-06
7.53549e-06
6.9842e-06
8.78702e-06
6.10398e-06
9.71814e-06
5.05629e-06
1.03239e-05
3.97688e-06
1.06155e-05
2.92706e-06
1.05989e-05
1.94477e-06
1.02795e-05
1.02428e-06
9.61109e-06
1.80105e-07
8.61617e-06
-7.09562e-07
7.28452e-06
-1.58262e-06
5.66837e-06
-2.60487e-06
3.92895e-06
-4.11634e-06
2.25061e-06
-7.74104e-06
6.56896e-07
-1.65966e-05
-2.27483e-05
-5.19137e-07
1.87364e-06
2.03705e-07
3.9951e-06
1.76782e-06
5.17223e-06
3.84134e-06
5.48018e-06
6.00701e-06
5.37355e-06
7.97781e-06
5.01341e-06
9.61709e-06
4.4647e-06
1.08832e-05
3.79014e-06
1.17587e-05
3.10142e-06
1.22595e-05
2.42622e-06
1.23892e-05
1.81516e-06
1.21672e-05
1.24618e-06
1.16181e-05
7.29272e-07
1.07119e-05
1.96647e-07
9.45339e-06
-3.24132e-07
7.91644e-06
-1.06792e-06
6.28692e-06
-2.48683e-06
4.46674e-06
-5.92086e-06
2.05973e-06
-1.41896e-05
-2.06885e-05
-4.18156e-06
6.0552e-06
-3.64415e-06
3.45769e-06
-1.24383e-06
2.77192e-06
1.56259e-06
2.67376e-06
4.31112e-06
2.62501e-06
6.85469e-06
2.46985e-06
9.07957e-06
2.23982e-06
1.09253e-05
1.94445e-06
1.23731e-05
1.65355e-06
1.34501e-05
1.34925e-06
1.41732e-05
1.09209e-06
1.45871e-05
8.32254e-07
1.46795e-05
6.36911e-07
1.44592e-05
4.16923e-07
1.39224e-05
2.12686e-07
1.30849e-05
-2.30443e-07
1.19346e-05
-1.33656e-06
1.01167e-05
-4.10291e-06
5.63958e-06
-9.71248e-06
-1.5049e-05
6.0552e-06
9.51289e-06
1.22848e-05
1.49586e-05
1.75836e-05
2.00534e-05
2.22932e-05
2.42377e-05
2.58912e-05
2.72405e-05
2.83326e-05
2.91648e-05
2.98017e-05
3.02187e-05
3.04313e-05
3.02009e-05
2.88643e-05
2.47614e-05
1.5049e-05
)
;

boundaryField
{
    movingWall
    {
        type            calculated;
        value           uniform 0;
    }
    fixedWalls
    {
        type            calculated;
        value           uniform 0;
    }
    frontAndBack
    {
        type            empty;
        value           nonuniform List<scalar> 0();
    }
}


// ************************************************************************* //
