/*--------------------------------*- C++ -*----------------------------------*\
| =========                 |                                                 |
| \\      /  F ield         | OpenFOAM: The Open Source CFD Toolbox           |
|  \\    /   O peration     | Version:  2212                                  |
|   \\  /    A nd           | Website:  www.openfoam.com                      |
|    \\/     M anipulation  |                                                 |
\*---------------------------------------------------------------------------*/
FoamFile
{
    version     2.0;
    format      ascii;
    arch        "LSB;label=32;scalar=64";
    class       volScalarField;
    location    "9.8";
    object      T;
}
// * * * * * * * * * * * * * * * * * * * * * * * * * * * * * * * * * * * * * //

dimensions      [0 0 0 1 0 0 0];

internalField   nonuniform List<scalar> 
400
(
0.886988
0.889718
0.895246
0.903379
0.912765
0.921188
0.92707
0.930358
0.932052
0.933174
0.934178
0.935199
0.936276
0.937365
0.938287
0.938743
0.938241
0.936242
0.933007
0.930353
0.890546
0.893861
0.90049
0.909923
0.919779
0.926892
0.930274
0.931444
0.931876
0.9322
0.932787
0.933853
0.935467
0.937532
0.939611
0.941037
0.940784
0.938068
0.933912
0.930894
0.896077
0.90048
0.908641
0.918414
0.926027
0.929261
0.929326
0.928139
0.926603
0.925437
0.925269
0.926535
0.929251
0.933328
0.938011
0.942184
0.943973
0.941496
0.935577
0.931893
0.901479
0.907003
0.915862
0.923809
0.927338
0.926316
0.922856
0.918399
0.913961
0.910678
0.909402
0.910856
0.914865
0.921517
0.929899
0.938677
0.94537
0.94666
0.940013
0.934299
0.90565
0.911841
0.920083
0.924769
0.923724
0.918327
0.910721
0.902294
0.894574
0.888943
0.886399
0.88778
0.892867
0.901854
0.913941
0.92783
0.941048
0.949705
0.948099
0.938838
0.90845
0.914669
0.921269
0.92211
0.916497
0.90667
0.894746
0.882469
0.871774
0.864104
0.860462
0.861508
0.867223
0.877726
0.892513
0.910504
0.929587
0.94619
0.954251
0.945525
0.910091
0.915768
0.920164
0.917203
0.907419
0.893524
0.877774
0.862386
0.849508
0.840516
0.836235
0.83699
0.84289
0.85399
0.870126
0.890661
0.913923
0.936687
0.953661
0.955084
0.910896
0.91574
0.917945
0.911706
0.898383
0.881039
0.86225
0.844647
0.83042
0.820782
0.816266
0.816907
0.822724
0.833723
0.849985
0.871496
0.897392
0.924805
0.94834
0.960232
0.911128
0.915056
0.915354
0.906543
0.890502
0.870595
0.849701
0.830693
0.815715
0.80579
0.801187
0.801782
0.807462
0.818109
0.833785
0.854925
0.881861
0.912752
0.941476
0.958085
0.91099
0.914135
0.913131
0.90274
0.884965
0.86337
0.841107
0.821205
0.805739
0.795565
0.79079
0.791253
0.796788
0.807147
0.82214
0.842191
0.868674
0.901625
0.935302
0.956481
0.9106
0.913169
0.911439
0.90033
0.881741
0.859378
0.836551
0.816275
0.800519
0.790046
0.784929
0.785059
0.790304
0.80036
0.814763
0.833542
0.85854
0.89199
0.929545
0.955452
0.91003
0.912278
0.910495
0.899715
0.881399
0.859208
0.836505
0.816225
0.800271
0.789426
0.783827
0.783427
0.78813
0.797644
0.811352
0.828789
0.851672
0.884388
0.92495
0.954895
0.909273
0.911424
0.910036
0.900338
0.8832
0.862072
0.840266
0.820573
0.804818
0.793821
0.787803
0.78676
0.790657
0.799224
0.811835
0.82774
0.848072
0.878814
0.921313
0.954837
0.90828
0.910555
0.910007
0.902207
0.887295
0.868243
0.848176
0.829692
0.814534
0.80359
0.797196
0.79535
0.798124
0.805252
0.816188
0.830074
0.847557
0.875572
0.918966
0.955186
0.906959
0.909498
0.909771
0.904025
0.89188
0.875704
0.858273
0.841895
0.828142
0.817869
0.811487
0.808978
0.810466
0.81574
0.824371
0.835771
0.850225
0.87461
0.917734
0.955952
0.905381
0.908277
0.9096
0.906208
0.897418
0.884888
0.870878
0.857322
0.845582
0.836432
0.830285
0.827196
0.827198
0.830239
0.836057
0.844371
0.855551
0.875579
0.917686
0.957158
0.903828
0.906659
0.908261
0.90652
0.900783
0.892108
0.882072
0.872108
0.863213
0.856005
0.850751
0.847601
0.846456
0.847428
0.850504
0.855638
0.863885
0.880116
0.920138
0.959208
0.902727
0.905975
0.908355
0.907977
0.904931
0.899832
0.893602
0.887117
0.881015
0.875769
0.871554
0.868567
0.866791
0.866335
0.867491
0.870135
0.876239
0.888767
0.924751
0.961793
0.88849
0.903153
0.903473
0.903346
0.901749
0.899463
0.896772
0.894243
0.891905
0.890185
0.888933
0.888389
0.888468
0.889123
0.890834
0.893006
0.898547
0.90818
0.935559
0.966224
0.921612
0.931149
0.936301
0.939441
0.941177
0.9423
0.942935
0.943565
0.944024
0.944685
0.945269
0.946111
0.946889
0.947926
0.948918
0.950281
0.951995
0.95559
0.962705
0.975305
)
;

boundaryField
{
    movingWall
    {
        type            fixedValue;
        value           uniform 1;
    }
    fixedWalls
    {
        type            zeroGradient;
    }
    frontAndBack
    {
        type            empty;
    }
}


// ************************************************************************* //
