/*--------------------------------*- C++ -*----------------------------------*\
| =========                 |                                                 |
| \\      /  F ield         | OpenFOAM: The Open Source CFD Toolbox           |
|  \\    /   O peration     | Version:  2212                                  |
|   \\  /    A nd           | Website:  www.openfoam.com                      |
|    \\/     M anipulation  |                                                 |
\*---------------------------------------------------------------------------*/
FoamFile
{
    version     2.0;
    format      ascii;
    arch        "LSB;label=32;scalar=64";
    class       volVectorField;
    location    "9.8";
    object      U;
}
// * * * * * * * * * * * * * * * * * * * * * * * * * * * * * * * * * * * * * //

dimensions      [0 1 -1 0 0 0 0];

internalField   nonuniform List<vector> 
400
(
(0.00168176 -0.0016837 0)
(0.00483856 -0.00189218 0)
(0.00659091 -0.00120069 0)
(0.00567455 -0.000575107 0)
(0.00157196 0.000183999 0)
(-0.00682933 0.00173938 0)
(-0.0206083 0.00478632 0)
(-0.0395411 0.00873599 0)
(-0.0608112 0.0112926 0)
(-0.0791377 0.0105125 0)
(-0.0898131 0.00677452 0)
(-0.0904637 0.00166901 0)
(-0.0802265 -0.00361645 0)
(-0.0599944 -0.00827492 0)
(-0.0335215 -0.0108471 0)
(-0.00529323 -0.00979529 0)
(0.0167233 -0.00477313 0)
(0.0244704 0.00277681 0)
(0.0161786 0.00647221 0)
(0.00431652 0.00471712 0)
(0.00172043 -0.005065 0)
(0.00316248 -0.00403227 0)
(-0.000417346 0.000587854 0)
(-0.0113301 0.00644172 0)
(-0.0314262 0.0140501 0)
(-0.0611501 0.023774 0)
(-0.096847 0.0330618 0)
(-0.13146 0.0370928 0)
(-0.158973 0.0335176 0)
(-0.176105 0.0234015 0)
(-0.181452 0.00910936 0)
(-0.175081 -0.00699006 0)
(-0.157563 -0.0231744 0)
(-0.129652 -0.0369144 0)
(-0.0936154 -0.0445661 0)
(-0.0521949 -0.0418392 0)
(-0.0114004 -0.0263345 0)
(0.0168895 -0.00127921 0)
(0.0178721 0.0162238 0)
(0.0055422 0.01482 0)
(-0.000239653 -0.00578019 0)
(-0.00538132 0.000801972 0)
(-0.0196097 0.0142995 0)
(-0.0445046 0.0312364 0)
(-0.0803423 0.0494462 0)
(-0.122207 0.0643215 0)
(-0.162353 0.0705476 0)
(-0.195276 0.0660296 0)
(-0.218869 0.0521916 0)
(-0.232537 0.0315341 0)
(-0.236293 0.00641635 0)
(-0.230808 -0.0211138 0)
(-0.216393 -0.0488739 0)
(-0.192547 -0.0732282 0)
(-0.159009 -0.0890282 0)
(-0.115744 -0.0892311 0)
(-0.0645639 -0.0670299 0)
(-0.0138215 -0.0226649 0)
(0.00948142 0.0179185 0)
(0.00415545 0.0235802 0)
(-0.00347202 0.000453519 0)
(-0.0175152 0.0172409 0)
(-0.0435174 0.0415018 0)
(-0.0796847 0.0681966 0)
(-0.122963 0.0911634 0)
(-0.165858 0.103851 0)
(-0.201931 0.102906 0)
(-0.229255 0.0896735 0)
(-0.248095 0.0673273 0)
(-0.25905 0.0385801 0)
(-0.262958 0.00531726 0)
(-0.260625 -0.031118 0)
(-0.251992 -0.0684568 0)
(-0.236013 -0.103746 0)
(-0.2107 -0.131494 0)
(-0.173352 -0.142894 0)
(-0.121405 -0.125768 0)
(-0.0568456 -0.070854 0)
(-0.000987046 0.00356625 0)
(0.00474229 0.0282408 0)
(-0.00666298 0.0147834 0)
(-0.0287311 0.0441127 0)
(-0.063293 0.0770983 0)
(-0.104467 0.108926 0)
(-0.147289 0.131216 0)
(-0.184591 0.138204 0)
(-0.212932 0.12951 0)
(-0.232716 0.108751 0)
(-0.245234 0.0798003 0)
(-0.252211 0.0454486 0)
(-0.25533 0.00724027 0)
(-0.255512 -0.0339989 0)
(-0.252532 -0.0770857 0)
(-0.24585 -0.120691 0)
(-0.232653 -0.160828 0)
(-0.208329 -0.189039 0)
(-0.166826 -0.189987 0)
(-0.103453 -0.142883 0)
(-0.0221828 -0.0388542 0)
(0.00738203 0.0271015 0)
(-0.00851138 0.0348752 0)
(-0.0351797 0.0766436 0)
(-0.0730982 0.114961 0)
(-0.113273 0.147714 0)
(-0.15054 0.166047 0)
(-0.179405 0.165984 0)
(-0.198932 0.149772 0)
(-0.210679 0.122512 0)
(-0.21663 0.0885496 0)
(-0.219261 0.0508723 0)
(-0.220531 0.0109554 0)
(-0.221431 -0.0307589 0)
(-0.222163 -0.0747234 0)
(-0.222836 -0.121296 0)
(-0.221263 -0.169243 0)
(-0.212359 -0.213075 0)
(-0.188039 -0.238604 0)
(-0.139696 -0.218553 0)
(-0.0628527 -0.118947 0)
(0.00584927 0.0142036 0)
(-0.00829371 0.0570095 0)
(-0.0353456 0.11002 0)
(-0.0718445 0.150509 0)
(-0.107089 0.181204 0)
(-0.136727 0.193899 0)
(-0.157136 0.186504 0)
(-0.169048 0.163339 0)
(-0.174588 0.130553 0)
(-0.176163 0.0929065 0)
(-0.176262 0.053412 0)
(-0.176376 0.0133146 0)
(-0.177176 -0.0273117 0)
(-0.179208 -0.0695802 0)
(-0.183016 -0.114734 0)
(-0.187964 -0.163868 0)
(-0.190434 -0.215837 0)
(-0.182545 -0.261689 0)
(-0.154293 -0.275206 0)
(-0.0994104 -0.205927 0)
(-0.00890848 -0.0146254 0)
(-0.0061366 0.0776079 0)
(-0.0297972 0.140575 0)
(-0.0614367 0.18125 0)
(-0.0899114 0.208369 0)
(-0.111924 0.214959 0)
(-0.125463 0.200632 0)
(-0.132155 0.171399 0)
(-0.134308 0.134234 0)
(-0.134372 0.0941181 0)
(-0.134273 0.0537529 0)
(-0.13468 0.0138636 0)
(-0.135773 -0.0258902 0)
(-0.138005 -0.0664872 0)
(-0.142068 -0.109106 0)
(-0.14858 -0.155695 0)
(-0.156244 -0.208611 0)
(-0.159099 -0.265936 0)
(-0.146769 -0.308171 0)
(-0.112268 -0.277241 0)
(-0.0309693 -0.0753447 0)
(-0.00273076 0.0936299 0)
(-0.0204232 0.16567 0)
(-0.0451627 0.205645 0)
(-0.0663619 0.22864 0)
(-0.0816336 0.229603 0)
(-0.0901264 0.209616 0)
(-0.0937604 0.175863 0)
(-0.0946739 0.135824 0)
(-0.0949524 0.0944771 0)
(-0.0957487 0.054034 0)
(-0.0970989 0.0145942 0)
(-0.0989089 -0.0245864 0)
(-0.101345 -0.064238 0)
(-0.104912 -0.10501 0)
(-0.110757 -0.148493 0)
(-0.119617 -0.198614 0)
(-0.12837 -0.259842 0)
(-0.126541 -0.323505 0)
(-0.107493 -0.334808 0)
(-0.0373544 -0.163461 0)
(0.00121935 0.102778 0)
(-0.00894594 0.183515 0)
(-0.0256518 0.223203 0)
(-0.0396537 0.242827 0)
(-0.0491353 0.239593 0)
(-0.0540097 0.215619 0)
(-0.0559805 0.178863 0)
(-0.0566943 0.137164 0)
(-0.057656 0.0954085 0)
(-0.0593985 0.0552736 0)
(-0.0616917 0.0163103 0)
(-0.0643921 -0.0224929 0)
(-0.0674909 -0.0617424 0)
(-0.0711661 -0.101637 0)
(-0.0763498 -0.142845 0)
(-0.0846119 -0.188989 0)
(-0.0960791 -0.24841 0)
(-0.100662 -0.324372 0)
(-0.0951815 -0.372276 0)
(-0.030926 -0.242616 0)
(0.00511904 0.103945 0)
(0.00295746 0.193117 0)
(-0.00539143 0.2337 0)
(-0.0125096 0.250862 0)
(-0.0169015 0.244777 0)
(-0.0187892 0.21856 0)
(-0.019478 0.180498 0)
(-0.0200067 0.138421 0)
(-0.0213052 0.0969633 0)
(-0.0235413 0.0574241 0)
(-0.0264303 0.0190822 0)
(-0.0299138 -0.0191678 0)
(-0.0340083 -0.0579807 0)
(-0.038652 -0.0974074 0)
(-0.0443906 -0.137365 0)
(-0.0524506 -0.180237 0)
(-0.0657674 -0.23571 0)
(-0.074226 -0.318151 0)
(-0.0812029 -0.396782 0)
(-0.0229433 -0.307177 0)
(0.00845877 0.0974706 0)
(0.0142226 0.19411 0)
(0.0141056 0.237223 0)
(0.0137112 0.253643 0)
(0.0143341 0.246564 0)
(0.0155313 0.219856 0)
(0.0163911 0.181807 0)
(0.0164449 0.140091 0)
(0.0153072 0.099151 0)
(0.0130301 0.0602241 0)
(0.00986235 0.0226263 0)
(0.00575407 -0.014752 0)
(0.000562268 -0.0526956 0)
(-0.00556347 -0.0913006 0)
(-0.0130315 -0.130195 0)
(-0.0219786 -0.170377 0)
(-0.0377194 -0.220755 0)
(-0.0487301 -0.304512 0)
(-0.0679048 -0.408525 0)
(-0.0144593 -0.36006 0)
(0.0103305 0.0844903 0)
(0.0234219 0.186514 0)
(0.0310867 0.233347 0)
(0.0370172 0.250188 0)
(0.0426799 0.243349 0)
(0.0476355 0.217564 0)
(0.0510735 0.180801 0)
(0.05275 0.140394 0)
(0.052619 0.100632 0)
(0.0508901 0.0628217 0)
(0.0477806 0.0264567 0)
(0.0431726 -0.00952017 0)
(0.0368987 -0.0460002 0)
(0.0290828 -0.0831381 0)
(0.018927 -0.120566 0)
(0.00760063 -0.158509 0)
(-0.0118149 -0.204468 0)
(-0.0242373 -0.286515 0)
(-0.0558432 -0.411031 0)
(-0.00613728 -0.401907 0)
(0.00987923 0.0672375 0)
(0.0290338 0.170704 0)
(0.0443618 0.222254 0)
(0.0569062 0.241353 0)
(0.0682019 0.236427 0)
(0.0778909 0.213065 0)
(0.0851141 0.178771 0)
(0.0895706 0.140429 0)
(0.0913368 0.102268 0)
(0.0907126 0.06583 0)
(0.0880277 0.0309792 0)
(0.0829785 -0.00330177 0)
(0.0754634 -0.0375468 0)
(0.0657704 -0.072331 0)
(0.0525172 -0.107458 0)
(0.0375821 -0.142809 0)
(0.013138 -0.184295 0)
(8.46938e-05 -0.263275 0)
(-0.0447954 -0.406731 0)
(0.00276629 -0.436283 0)
(0.00693062 0.0493978 0)
(0.0293689 0.148978 0)
(0.0511208 0.203662 0)
(0.0700026 0.224584 0)
(0.0874819 0.221728 0)
(0.10318 0.201569 0)
(0.115853 0.170974 0)
(0.12482 0.136083 0)
(0.129994 0.100883 0)
(0.131616 0.0670533 0)
(0.129953 0.0348433 0)
(0.125029 0.00342919 0)
(0.116397 -0.0274696 0)
(0.104664 -0.0587109 0)
(0.0875675 -0.0903367 0)
(0.0683747 -0.122957 0)
(0.0383067 -0.160877 0)
(0.0238658 -0.237175 0)
(-0.0344369 -0.398977 0)
(0.0134761 -0.464439 0)
(0.00238739 0.0346262 0)
(0.0236446 0.123907 0)
(0.0509665 0.179965 0)
(0.0767032 0.202968 0)
(0.101373 0.202658 0)
(0.124261 0.186257 0)
(0.143719 0.1602 0)
(0.158531 0.129767 0)
(0.168279 0.0985728 0)
(0.173172 0.0683048 0)
(0.173148 0.0395605 0)
(0.16892 0.0119344 0)
(0.159082 -0.0149156 0)
(0.145347 -0.0417232 0)
(0.12404 -0.0687682 0)
(0.100495 -0.0975717 0)
(0.0646351 -0.132727 0)
(0.0470136 -0.20747 0)
(-0.0227011 -0.387091 0)
(0.0285345 -0.485564 0)
(-0.00342631 0.0286124 0)
(0.0100744 0.101504 0)
(0.0371185 0.148707 0)
(0.0689888 0.169476 0)
(0.101889 0.170699 0)
(0.133614 0.158408 0)
(0.161617 0.137971 0)
(0.184167 0.113567 0)
(0.20022 0.0882772 0)
(0.210147 0.0636331 0)
(0.213073 0.0403798 0)
(0.21082 0.0184 0)
(0.200554 -0.00268125 0)
(0.18592 -0.0233205 0)
(0.1611 -0.0439885 0)
(0.134477 -0.0677516 0)
(0.0929393 -0.101703 0)
(0.0698818 -0.180022 0)
(-0.00436447 -0.370057 0)
(0.0521628 -0.491643 0)
(-0.0140124 0.0185162 0)
(-0.00751609 0.0881759 0)
(0.0192227 0.124198 0)
(0.0564611 0.137327 0)
(0.0976209 0.13692 0)
(0.13801 0.127738 0)
(0.174269 0.113081 0)
(0.204119 0.095301 0)
(0.226019 0.0768266 0)
(0.241115 0.0586758 0)
(0.247151 0.0418011 0)
(0.248068 0.0261051 0)
(0.238727 0.0117396 0)
(0.226908 -0.00205303 0)
(0.201905 -0.0160944 0)
(0.177915 -0.0350312 0)
(0.133562 -0.0678096 0)
(0.107844 -0.146005 0)
(0.0374742 -0.326119 0)
(0.0923683 -0.455871 0)
(-0.10602 0.0824172 0)
(-0.0777604 0.0689902 0)
(-0.0485678 0.0733709 0)
(0.00378318 0.077892 0)
(0.057302 0.0782267 0)
(0.110038 0.0739628 0)
(0.157211 0.0666274 0)
(0.199577 0.0572223 0)
(0.231692 0.0475455 0)
(0.259846 0.0378881 0)
(0.275575 0.0292199 0)
(0.29073 0.0212328 0)
(0.291081 0.0144744 0)
(0.29519 0.00809049 0)
(0.278885 0.00112187 0)
(0.271667 -0.0100156 0)
(0.232353 -0.0355702 0)
(0.218145 -0.09542 0)
(0.150208 -0.229723 0)
(0.170672 -0.341455 0)
(0.129969 0.103744 0)
(0.158319 0.0752275 0)
(0.212164 0.0532272 0)
(0.270672 0.0416225 0)
(0.323249 0.0359129 0)
(0.375692 0.0319486 0)
(0.420289 0.0289165 0)
(0.465609 0.025581 0)
(0.498707 0.022903 0)
(0.533958 0.0197105 0)
(0.553397 0.0175475 0)
(0.579207 0.0146095 0)
(0.585344 0.0131646 0)
(0.603682 0.0103456 0)
(0.595101 0.00938319 0)
(0.603601 0.0049995 0)
(0.567792 8.89744e-05 0)
(0.547613 -0.0183161 0)
(0.43569 -0.0504144 0)
(0.336753 -0.101386 0)
)
;

boundaryField
{
    movingWall
    {
        type            fixedValue;
        value           uniform (1 0 0);
    }
    fixedWalls
    {
        type            noSlip;
    }
    frontAndBack
    {
        type            empty;
    }
}


// ************************************************************************* //
