/*--------------------------------*- C++ -*----------------------------------*\
| =========                 |                                                 |
| \\      /  F ield         | OpenFOAM: The Open Source CFD Toolbox           |
|  \\    /   O peration     | Version:  2212                                  |
|   \\  /    A nd           | Website:  www.openfoam.com                      |
|    \\/     M anipulation  |                                                 |
\*---------------------------------------------------------------------------*/
FoamFile
{
    version     2.0;
    format      ascii;
    arch        "LSB;label=32;scalar=64";
    class       surfaceScalarField;
    location    "4.5";
    object      phi;
}
// * * * * * * * * * * * * * * * * * * * * * * * * * * * * * * * * * * * * * //

dimensions      [0 3 -1 0 0 0 0];

oriented        oriented;

internalField   nonuniform List<scalar> 
760
(
1.54603e-07
-1.54647e-07
2.90454e-07
-1.35851e-07
3.06077e-07
-1.56226e-08
1.79864e-07
1.26213e-07
-1.23092e-07
3.02957e-07
-6.66144e-07
5.43052e-07
-1.48109e-06
8.1495e-07
-2.48161e-06
1.00052e-06
-3.46724e-06
9.85631e-07
-4.206e-06
7.38753e-07
-4.53101e-06
3.25013e-07
-4.34512e-06
-1.85891e-07
-3.59145e-06
-7.53665e-07
-2.3834e-06
-1.20805e-06
-9.50089e-07
-1.43331e-06
3.34694e-07
-1.28478e-06
1.07863e-06
-7.43934e-07
1.02656e-06
5.20672e-08
4.5876e-07
5.67802e-07
4.5876e-07
1.22513e-07
-2.7716e-07
7.00763e-08
-8.34135e-08
-3.01074e-07
3.55528e-07
-1.07964e-06
9.04776e-07
-2.31032e-06
1.53364e-06
-3.91339e-06
2.14612e-06
-5.6403e-06
2.54186e-06
-7.17954e-06
2.53976e-06
-8.30699e-06
2.11307e-06
-8.91266e-06
1.34443e-06
-8.94936e-06
3.61714e-07
-8.39427e-06
-7.40985e-07
-7.27852e-06
-1.86942e-06
-5.63477e-06
-2.85179e-06
-3.60625e-06
-3.46184e-06
-1.49652e-06
-3.39451e-06
1.69108e-07
-2.40956e-06
8.51658e-07
-6.30483e-07
5.22842e-07
8.96618e-07
9.81602e-07
-1.29454e-07
-1.47705e-07
-6.35443e-07
4.22575e-07
-1.62243e-06
1.34251e-06
-3.13108e-06
2.41343e-06
-5.03698e-06
3.43954e-06
-7.04318e-06
4.15232e-06
-8.83595e-06
4.33463e-06
-1.02353e-05
3.9391e-06
-1.11892e-05
3.06698e-06
-1.16899e-05
1.84519e-06
-1.16865e-05
3.58231e-07
-1.12313e-05
-1.19616e-06
-1.03045e-05
-2.79624e-06
-8.8516e-06
-4.30466e-06
-6.85243e-06
-5.46101e-06
-4.3954e-06
-5.85154e-06
-1.87854e-06
-4.92641e-06
-8.97873e-08
-2.41924e-06
2.93292e-07
5.1354e-07
1.27489e-06
-4.99562e-07
3.51857e-07
-1.55508e-06
1.4781e-06
-3.10662e-06
2.89405e-06
-5.05788e-06
4.3647e-06
-7.15101e-06
5.53267e-06
-9.08008e-06
6.08139e-06
-1.06433e-05
5.89782e-06
-1.17976e-05
5.0934e-06
-1.25709e-05
3.8403e-06
-1.29982e-05
2.27245e-06
-1.30649e-05
4.24928e-07
-1.28285e-05
-1.43251e-06
-1.22511e-05
-3.37368e-06
-1.12306e-05
-5.32517e-06
-9.6358e-06
-7.05576e-06
-7.34205e-06
-8.14529e-06
-4.38744e-06
-7.88102e-06
-1.37712e-06
-5.42956e-06
1.19331e-07
-9.82915e-07
1.39423e-06
-8.57852e-07
1.20971e-06
-2.34982e-06
2.97007e-06
-4.21048e-06
4.7547e-06
-6.24667e-06
6.40089e-06
-8.17928e-06
7.46527e-06
-9.78631e-06
7.68843e-06
-1.09906e-05
7.1021e-06
-1.18182e-05
5.92104e-06
-1.23312e-05
4.35327e-06
-1.26026e-05
2.54382e-06
-1.27231e-05
5.4545e-07
-1.26804e-05
-1.47516e-06
-1.24651e-05
-3.58898e-06
-1.19976e-05
-5.79266e-06
-1.10912e-05
-7.96217e-06
-9.45794e-06
-9.77859e-06
-6.79918e-06
-1.05398e-05
-3.21393e-06
-9.0148e-06
-2.62108e-07
-3.93474e-06
1.13212e-06
-1.08017e-06
2.28988e-06
-2.76777e-06
4.65766e-06
-4.65056e-06
6.63749e-06
-6.4983e-06
8.24864e-06
-8.08777e-06
9.05475e-06
-9.28776e-06
8.88842e-06
-1.00934e-05
7.90776e-06
-1.05696e-05
6.39717e-06
-1.08067e-05
4.5904e-06
-1.09053e-05
2.64243e-06
-1.09872e-05
6.27337e-07
-1.10406e-05
-1.42179e-06
-1.10806e-05
-3.54892e-06
-1.10775e-05
-5.79574e-06
-1.08767e-05
-8.16303e-06
-1.01502e-05
-1.05051e-05
-8.40437e-06
-1.22856e-05
-5.22545e-06
-1.21937e-05
-1.15566e-06
-8.00452e-06
-2.35479e-08
-1.10283e-06
3.39271e-06
-2.74045e-06
6.29528e-06
-4.42822e-06
8.32527e-06
-5.95519e-06
9.7756e-06
-7.16165e-06
1.02612e-05
-7.98455e-06
9.71132e-06
-8.46072e-06
8.38393e-06
-8.67692e-06
6.61337e-06
-8.73715e-06
4.65063e-06
-8.73948e-06
2.64476e-06
-8.7677e-06
6.55559e-07
-8.84123e-06
-1.34826e-06
-8.97973e-06
-3.41042e-06
-9.19407e-06
-5.5814e-06
-9.42622e-06
-7.93088e-06
-9.4431e-06
-1.04882e-05
-8.72493e-06
-1.30037e-05
-6.51599e-06
-1.44027e-05
-2.41487e-06
-1.21056e-05
-2.43842e-06
-9.28547e-07
4.32125e-06
-2.33124e-06
7.69798e-06
-3.7104e-06
9.70443e-06
-4.8827e-06
1.09479e-05
-5.74705e-06
1.11256e-05
-6.28578e-06
1.02501e-05
-6.55528e-06
8.65343e-06
-6.64644e-06
6.70453e-06
-6.65613e-06
4.66031e-06
-6.65856e-06
2.64718e-06
-6.69079e-06
6.87787e-07
-6.77048e-06
-1.26856e-06
-6.919e-06
-3.26191e-06
-7.16676e-06
-5.33364e-06
-7.52986e-06
-7.56778e-06
-7.91515e-06
-1.01029e-05
-7.91058e-06
-1.30083e-05
-6.69856e-06
-1.56147e-05
-3.57354e-06
-1.52307e-05
-6.01195e-06
-6.19743e-07
4.941e-06
-1.67555e-06
8.75379e-06
-2.70283e-06
1.07317e-05
-3.53676e-06
1.17818e-05
-4.12147e-06
1.17103e-05
-4.46644e-06
1.0595e-05
-4.63002e-06
8.81701e-06
-4.69075e-06
6.76527e-06
-4.72169e-06
4.69125e-06
-4.76744e-06
2.69293e-06
-4.83874e-06
7.59088e-07
-4.94251e-06
-1.16479e-06
-5.08903e-06
-3.11539e-06
-5.3073e-06
-5.11537e-06
-5.65229e-06
-7.2228e-06
-6.13605e-06
-9.61915e-06
-6.53735e-06
-1.2607e-05
-6.11351e-06
-1.60385e-05
-3.91339e-06
-1.74308e-05
-9.92534e-06
-2.29951e-07
5.17095e-06
-8.86301e-07
9.41014e-06
-1.55403e-06
1.13994e-05
-2.08015e-06
1.23079e-05
-2.43654e-06
1.20667e-05
-2.64711e-06
1.08056e-05
-2.75989e-06
8.9298e-06
-2.82831e-06
6.83368e-06
-2.8976e-06
4.76054e-06
-2.99028e-06
2.78561e-06
-3.10925e-06
8.78058e-07
-3.25443e-06
-1.0196e-06
-3.42635e-06
-2.94347e-06
-3.63777e-06
-4.90396e-06
-3.9404e-06
-6.92017e-06
-4.41599e-06
-9.14356e-06
-5.0092e-06
-1.20138e-05
-5.11477e-06
-1.5933e-05
-3.55241e-06
-1.89931e-05
-1.34778e-05
1.63276e-07
5.00767e-06
-6.837e-08
9.64178e-06
-3.99275e-07
1.17303e-05
-6.48441e-07
1.25571e-05
-8.01486e-07
1.22197e-05
-8.89383e-07
1.08935e-05
-9.51657e-07
8.99207e-06
-1.02035e-06
6.90238e-06
-1.11222e-06
4.85241e-06
-1.23498e-06
2.90837e-06
-1.39093e-06
1.03401e-06
-1.58223e-06
-8.28298e-07
-1.80781e-06
-2.7179e-06
-2.06616e-06
-4.64561e-06
-2.38579e-06
-6.60054e-06
-2.86011e-06
-8.66924e-06
-3.55171e-06
-1.13222e-05
-4.0212e-06
-1.54635e-05
-3.02303e-06
-1.99913e-05
-1.65008e-05
4.98336e-07
4.50934e-06
6.95576e-07
9.44454e-06
7.38716e-07
1.16872e-05
7.74491e-07
1.25213e-05
8.1975e-07
1.21744e-05
8.48887e-07
1.08644e-05
8.41897e-07
8.99906e-06
7.90448e-07
6.95383e-06
6.96082e-07
4.94678e-06
5.60873e-07
3.04358e-06
3.80224e-07
1.21466e-06
1.47943e-07
-5.96017e-07
-1.38095e-07
-2.43186e-06
-4.84525e-07
-4.29917e-06
-8.96573e-07
-6.18849e-06
-1.42031e-06
-8.1455e-06
-2.20299e-06
-1.05395e-05
-2.95525e-06
-1.47112e-05
-2.46168e-06
-2.04849e-05
-1.89625e-05
7.52057e-07
3.75728e-06
1.34728e-06
8.84932e-06
1.73865e-06
1.12958e-05
2.06718e-06
1.21928e-05
2.33969e-06
1.19019e-05
2.52544e-06
1.06786e-05
2.61581e-06
8.90869e-06
2.62156e-06
6.94808e-06
2.55728e-06
5.01105e-06
2.43071e-06
3.17015e-06
2.2352e-06
1.41017e-06
1.95687e-06
-3.17682e-07
1.59522e-06
-2.07021e-06
1.14517e-06
-3.84912e-06
6.01626e-07
-5.64494e-06
-8.83436e-08
-7.45553e-06
-9.62354e-07
-9.66552e-06
-1.92557e-06
-1.3748e-05
-1.92825e-06
-2.04822e-05
-2.08907e-05
8.65614e-07
2.89167e-06
1.80088e-06
7.91405e-06
2.5399e-06
1.05568e-05
3.17888e-06
1.15538e-05
3.72491e-06
1.13559e-05
4.13426e-06
1.02693e-05
4.3906e-06
8.65236e-06
4.50794e-06
6.83074e-06
4.50994e-06
5.00905e-06
4.41261e-06
3.26747e-06
4.21457e-06
1.60821e-06
3.88658e-06
1.03056e-08
3.44419e-06
-1.62783e-06
2.86413e-06
-3.26906e-06
2.14636e-06
-4.92716e-06
1.30803e-06
-6.6172e-06
2.57056e-07
-8.61455e-06
-9.67212e-07
-1.25237e-05
-1.4315e-06
-2.00179e-05
-2.23222e-05
8.015e-07
2.09017e-06
1.94356e-06
6.77199e-06
2.98229e-06
9.51807e-06
3.95271e-06
1.05834e-05
4.82731e-06
1.04813e-05
5.53968e-06
9.55688e-06
6.0503e-06
8.14174e-06
6.36216e-06
6.51888e-06
6.49682e-06
4.87439e-06
6.47339e-06
3.29091e-06
6.29142e-06
1.79019e-06
5.9462e-06
3.55518e-07
5.40888e-06
-1.0905e-06
4.68387e-06
-2.54405e-06
3.76317e-06
-4.00647e-06
2.67503e-06
-5.52906e-06
1.37706e-06
-7.31658e-06
-1.61776e-07
-1.09849e-05
-9.18575e-07
-1.92611e-05
-2.32408e-05
5.73903e-07
1.51626e-06
1.74962e-06
5.59628e-06
3.08304e-06
8.18466e-06
4.42984e-06
9.23662e-06
5.69259e-06
9.21854e-06
6.77254e-06
8.47694e-06
7.604e-06
7.31028e-06
8.17431e-06
5.94857e-06
8.49633e-06
4.55236e-06
8.58773e-06
3.19951e-06
8.45573e-06
1.92219e-06
8.09823e-06
7.13016e-07
7.47179e-06
-4.64059e-07
6.59301e-06
-1.66528e-06
5.44892e-06
-2.86237e-06
4.08041e-06
-4.16056e-06
2.5568e-06
-5.79296e-06
9.45918e-07
-9.37401e-06
-1.4955e-07
-1.81656e-05
-2.33904e-05
1.50033e-07
1.36623e-06
1.03217e-06
4.71414e-06
2.50391e-06
6.71292e-06
4.2207e-06
7.51983e-06
5.93809e-06
7.50115e-06
7.46871e-06
6.94632e-06
8.70975e-06
6.06924e-06
9.6315e-06
5.02682e-06
1.02293e-05
3.95454e-06
1.05155e-05
2.91331e-06
1.04964e-05
1.9413e-06
1.01781e-05
1.03134e-06
9.5172e-06
1.96825e-07
8.53173e-06
-6.79808e-07
7.21437e-06
-1.54501e-06
5.61578e-06
-2.56197e-06
3.89492e-06
-4.0721e-06
2.23076e-06
-7.70985e-06
6.49309e-07
-1.65842e-05
-2.2741e-05
-5.1578e-07
1.88201e-06
1.97967e-07
4.00039e-06
1.74745e-06
5.16343e-06
3.80453e-06
5.46275e-06
5.954e-06
5.35169e-06
7.91017e-06
4.99015e-06
9.53644e-06
4.44297e-06
1.07916e-05
3.77165e-06
1.16583e-05
3.08788e-06
1.21534e-05
2.41817e-06
1.22813e-05
1.81339e-06
1.20623e-05
1.25035e-06
1.15186e-05
7.40532e-07
1.06237e-05
2.15043e-07
9.3819e-06
-3.03154e-07
7.86328e-06
-1.04335e-06
6.25358e-06
-2.46241e-06
4.44931e-06
-5.90557e-06
2.05254e-06
-1.41874e-05
-2.06885e-05
-4.17774e-06
6.05975e-06
-3.64131e-06
3.46397e-06
-1.25038e-06
2.7725e-06
1.54251e-06
2.66986e-06
4.27625e-06
2.61794e-06
6.80531e-06
2.4611e-06
9.0172e-06
2.23108e-06
1.08521e-05
1.93671e-06
1.22922e-05
1.64778e-06
1.33647e-05
1.34567e-06
1.40869e-05
1.09123e-06
1.45033e-05
8.33972e-07
1.46023e-05
6.41482e-07
1.43942e-05
4.23189e-07
1.38707e-05
2.20283e-07
1.30473e-05
-2.19868e-07
1.19137e-05
-1.3288e-06
1.01089e-05
-4.10079e-06
5.63643e-06
-9.71499e-06
-1.50521e-05
6.05975e-06
9.52371e-06
1.22962e-05
1.49661e-05
1.7584e-05
2.00451e-05
2.22762e-05
2.42129e-05
2.58607e-05
2.72063e-05
2.82976e-05
2.91316e-05
2.9773e-05
3.01962e-05
3.04165e-05
3.01966e-05
2.88678e-05
2.47671e-05
1.50521e-05
)
;

boundaryField
{
    movingWall
    {
        type            calculated;
        value           uniform 0;
    }
    fixedWalls
    {
        type            calculated;
        value           uniform 0;
    }
    frontAndBack
    {
        type            empty;
        value           nonuniform List<scalar> 0();
    }
}


// ************************************************************************* //
