/*--------------------------------*- C++ -*----------------------------------*\
| =========                 |                                                 |
| \\      /  F ield         | OpenFOAM: The Open Source CFD Toolbox           |
|  \\    /   O peration     | Version:  2212                                  |
|   \\  /    A nd           | Website:  www.openfoam.com                      |
|    \\/     M anipulation  |                                                 |
\*---------------------------------------------------------------------------*/
FoamFile
{
    version     2.0;
    format      ascii;
    arch        "LSB;label=32;scalar=64";
    class       surfaceScalarField;
    location    "1.4";
    object      phi;
}
// * * * * * * * * * * * * * * * * * * * * * * * * * * * * * * * * * * * * * //

dimensions      [0 3 -1 0 0 0 0];

oriented        oriented;

internalField   nonuniform List<scalar> 
760
(
3.62415e-08
-3.62412e-08
2.36916e-08
1.25498e-08
-3.37538e-08
5.74453e-08
-1.44064e-07
1.1031e-07
-3.32925e-07
1.88861e-07
-6.30413e-07
2.97488e-07
-1.05583e-06
4.25413e-07
-1.59507e-06
5.3924e-07
-2.17758e-06
5.82511e-07
-2.67885e-06
5.01278e-07
-2.96203e-06
2.83178e-07
-2.9443e-06
-1.77356e-08
-2.52627e-06
-4.18028e-07
-1.77741e-06
-7.48863e-07
-8.52457e-07
-9.24949e-07
-1.55538e-09
-8.50902e-07
5.45776e-07
-5.47332e-07
5.86647e-07
-4.08706e-08
2.78747e-07
3.07899e-07
2.78747e-07
-5.91718e-08
2.29305e-08
-2.43417e-07
1.96795e-07
-5.42347e-07
3.56375e-07
-9.82359e-07
5.50322e-07
-1.61047e-06
8.16972e-07
-2.4501e-06
1.13712e-06
-3.46175e-06
1.43707e-06
-4.52379e-06
1.60128e-06
-5.45689e-06
1.51561e-06
-6.08861e-06
1.13299e-06
-6.31223e-06
5.06807e-07
-6.06192e-06
-2.68045e-07
-5.34115e-06
-1.1388e-06
-4.18444e-06
-1.90558e-06
-2.71939e-06
-2.39e-06
-1.1881e-06
-2.38219e-06
-1.74907e-09
-1.73368e-06
5.31056e-07
-5.73676e-07
3.47793e-07
4.91163e-07
6.2654e-07
-2.02356e-07
2.25287e-07
-6.23152e-07
6.17591e-07
-1.20786e-06
9.41083e-07
-1.99263e-06
1.33509e-06
-3.01847e-06
1.84281e-06
-4.2636e-06
2.38225e-06
-5.61396e-06
2.78742e-06
-6.88927e-06
2.87659e-06
-7.9143e-06
2.54064e-06
-8.57618e-06
1.79488e-06
-8.81199e-06
7.42615e-07
-8.58293e-06
-4.97111e-07
-7.90989e-06
-1.81183e-06
-6.77017e-06
-3.04531e-06
-5.17808e-06
-3.98209e-06
-3.25391e-06
-4.30636e-06
-1.33662e-06
-3.65097e-06
-3.69309e-08
-1.87336e-06
2.45005e-07
2.09227e-07
8.71545e-07
-3.58041e-07
5.83328e-07
-1.0133e-06
1.27285e-06
-1.86533e-06
1.79311e-06
-2.94593e-06
2.41569e-06
-4.27274e-06
3.16962e-06
-5.77545e-06
3.88496e-06
-7.29347e-06
4.30545e-06
-8.63942e-06
4.22254e-06
-9.68059e-06
3.58181e-06
-1.03636e-05
2.4779e-06
-1.06586e-05
1.03763e-06
-1.05482e-05
-6.07551e-07
-1.00767e-05
-2.2833e-06
-9.17357e-06
-3.94846e-06
-7.75151e-06
-5.40414e-06
-5.74728e-06
-6.31059e-06
-3.28985e-06
-6.10841e-06
-9.63771e-07
-4.19944e-06
1.2646e-07
-8.81003e-07
9.98005e-07
-4.9054e-07
1.07387e-06
-1.33803e-06
2.12034e-06
-2.39768e-06
2.85276e-06
-3.68577e-06
3.70378e-06
-5.1858e-06
4.66966e-06
-6.78039e-06
5.47955e-06
-8.28185e-06
5.8069e-06
-9.52143e-06
5.46213e-06
-1.04228e-05
4.48318e-06
-1.09938e-05
3.04889e-06
-1.12634e-05
1.30719e-06
-1.12558e-05
-6.15113e-07
-1.10215e-05
-2.51764e-06
-1.04922e-05
-4.47773e-06
-9.52662e-06
-6.36971e-06
-7.91258e-06
-7.92463e-06
-5.46745e-06
-8.55354e-06
-2.42113e-06
-7.24575e-06
-1.6427e-07
-3.13787e-06
8.33735e-07
-5.70778e-07
1.64465e-06
-1.5346e-06
3.08416e-06
-2.70553e-06
4.02369e-06
-4.0687e-06
5.06696e-06
-5.56622e-06
6.16718e-06
-7.04693e-06
6.96026e-06
-8.32977e-06
7.08974e-06
-9.29525e-06
6.42761e-06
-9.92709e-06
5.11502e-06
-1.02787e-05
3.40054e-06
-1.04355e-05
1.46391e-06
-1.04815e-05
-5.69065e-07
-1.04218e-05
-2.57731e-06
-1.02609e-05
-4.63867e-06
-9.88076e-06
-6.74985e-06
-8.99162e-06
-8.81377e-06
-7.1833e-06
-1.03619e-05
-4.21029e-06
-1.02188e-05
-8.54929e-07
-6.49323e-06
-2.11939e-08
-5.76431e-07
2.22108e-06
-1.5557e-06
4.06343e-06
-2.71643e-06
5.18441e-06
-4.00383e-06
6.35436e-06
-5.33142e-06
7.49476e-06
-6.54974e-06
8.17858e-06
-7.51827e-06
8.05828e-06
-8.1731e-06
7.08243e-06
-8.54002e-06
5.48195e-06
-8.69469e-06
3.55521e-06
-8.73141e-06
1.50063e-06
-8.738e-06
-5.62481e-07
-8.73281e-06
-2.5825e-06
-8.77961e-06
-4.59187e-06
-8.84981e-06
-6.67964e-06
-8.70759e-06
-8.95599e-06
-7.8451e-06
-1.12243e-05
-5.62601e-06
-1.24379e-05
-1.91673e-06
-1.02025e-05
-1.93792e-06
-5.00289e-07
2.72137e-06
-1.38883e-06
4.95197e-06
-2.42398e-06
6.21957e-06
-3.5159e-06
7.44628e-06
-4.57438e-06
8.55324e-06
-5.48463e-06
9.08883e-06
-6.1605e-06
8.73415e-06
-6.58412e-06
7.50604e-06
-6.80058e-06
5.69841e-06
-6.87993e-06
3.63456e-06
-6.88495e-06
1.50565e-06
-6.85965e-06
-5.87776e-07
-6.83819e-06
-2.60397e-06
-6.90104e-06
-4.52902e-06
-7.12366e-06
-6.45703e-06
-7.42772e-06
-8.65193e-06
-7.35298e-06
-1.12991e-05
-6.07941e-06
-1.37114e-05
-2.98479e-06
-1.32971e-05
-4.92271e-06
-3.55616e-07
3.07698e-06
-1.06202e-06
5.65837e-06
-1.88657e-06
7.04412e-06
-2.71364e-06
8.27336e-06
-3.46826e-06
9.30786e-06
-4.08572e-06
9.70629e-06
-4.53357e-06
9.182e-06
-4.82438e-06
7.79686e-06
-5.00043e-06
5.87446e-06
-5.10537e-06
3.7395e-06
-5.16197e-06
1.56224e-06
-5.16592e-06
-5.83822e-07
-5.14028e-06
-2.62961e-06
-5.15403e-06
-4.51526e-06
-5.34218e-06
-6.26888e-06
-5.77456e-06
-8.21955e-06
-6.17505e-06
-1.08986e-05
-5.71308e-06
-1.41734e-05
-3.52921e-06
-1.5481e-05
-8.45192e-06
-1.65003e-07
3.24199e-06
-6.27748e-07
6.12112e-06
-1.19205e-06
7.60841e-06
-1.72434e-06
8.80564e-06
-2.17227e-06
9.7558e-06
-2.52277e-06
1.00568e-05
-2.78753e-06
9.44676e-06
-2.99251e-06
8.00183e-06
-3.1641e-06
6.04606e-06
-3.31508e-06
3.89047e-06
-3.43936e-06
1.68652e-06
-3.51438e-06
-5.08798e-07
-3.54042e-06
-2.60357e-06
-3.55613e-06
-4.49955e-06
-3.69166e-06
-6.13335e-06
-4.12507e-06
-7.78614e-06
-4.77521e-06
-1.02485e-05
-4.90103e-06
-1.40476e-05
-3.36021e-06
-1.70218e-05
-1.18121e-05
4.21964e-08
3.19979e-06
-1.50033e-07
6.31335e-06
-4.34734e-07
7.89312e-06
-6.68361e-07
9.03927e-06
-8.18158e-07
9.9056e-06
-9.18396e-07
1.0157e-05
-1.00484e-06
9.53321e-06
-1.10791e-06
8.1049e-06
-1.24327e-06
6.18141e-06
-1.40358e-06
4.05078e-06
-1.57061e-06
1.85356e-06
-1.73035e-06
-3.49058e-07
-1.8654e-06
-2.46852e-06
-1.97953e-06
-4.38543e-06
-2.16295e-06
-5.94992e-06
-2.60285e-06
-7.34624e-06
-3.3863e-06
-9.46502e-06
-3.9239e-06
-1.351e-05
-2.93516e-06
-1.80106e-05
-1.47473e-05
2.09044e-07
2.99075e-06
2.84321e-07
6.23807e-06
2.85931e-07
7.89151e-06
3.47448e-07
8.97775e-06
4.96573e-07
9.75647e-06
6.69868e-07
9.98373e-06
7.97239e-07
9.40584e-06
8.3319e-07
8.06895e-06
7.75795e-07
6.23881e-06
6.49276e-07
4.1773e-06
4.74803e-07
2.02803e-06
2.50825e-07
-1.25079e-07
1.43945e-08
-2.23209e-06
-2.95017e-07
-4.07601e-06
-6.70502e-07
-5.57444e-06
-1.21177e-06
-6.80497e-06
-2.12205e-06
-8.55475e-06
-2.96405e-06
-1.2668e-05
-2.46863e-06
-1.8506e-05
-1.72159e-05
3.2316e-07
2.66759e-06
6.27315e-07
5.93391e-06
8.79613e-07
7.63921e-06
1.21127e-06
8.64609e-06
1.65737e-06
9.31037e-06
2.13233e-06
9.50877e-06
2.51836e-06
9.01981e-06
2.7482e-06
7.83911e-06
2.81882e-06
6.16819e-06
2.75808e-06
4.23804e-06
2.58295e-06
2.20317e-06
2.28537e-06
1.72501e-07
1.87986e-06
-1.82658e-06
1.38185e-06
-3.578e-06
7.8447e-07
-4.97706e-06
4.58013e-09
-6.02508e-06
-9.96964e-07
-7.5532e-06
-2.07883e-06
-1.15861e-05
-2.00718e-06
-1.85776e-05
-1.92231e-05
3.61587e-07
2.306e-06
8.30164e-07
5.46534e-06
1.29863e-06
7.17074e-06
1.86438e-06
8.08034e-06
2.5649e-06
8.60985e-06
3.31662e-06
8.75706e-06
3.97922e-06
8.3572e-06
4.45278e-06
7.36555e-06
4.70787e-06
5.91311e-06
4.75733e-06
4.18858e-06
4.61371e-06
2.34679e-06
4.27821e-06
5.07998e-07
3.73767e-06
-1.28604e-06
3.03026e-06
-2.87059e-06
2.18428e-06
-4.13107e-06
1.23646e-06
-5.07726e-06
2.6543e-08
-6.34328e-06
-1.25952e-06
-1.03e-05
-1.57103e-06
-1.82661e-05
-2.07941e-05
3.08558e-07
1.99744e-06
8.30057e-07
4.94384e-06
1.44592e-06
6.55488e-06
2.20067e-06
7.3256e-06
3.11444e-06
7.69607e-06
4.11079e-06
7.76071e-06
5.04164e-06
7.42635e-06
5.77672e-06
6.63047e-06
6.25029e-06
5.43954e-06
6.44739e-06
3.99148e-06
6.37079e-06
2.42339e-06
6.02513e-06
8.5365e-07
5.38406e-06
-6.44968e-07
4.50561e-06
-1.99214e-06
3.43554e-06
-3.06101e-06
2.26007e-06
-3.90179e-06
9.24122e-07
-5.00734e-06
-4.98236e-07
-8.87768e-06
-1.13836e-06
-1.7626e-05
-2.19325e-05
1.76677e-07
1.82076e-06
6.46486e-07
4.47403e-06
1.35796e-06
5.8434e-06
2.25401e-06
6.42955e-06
3.32458e-06
6.6255e-06
4.49874e-06
6.58656e-06
5.63848e-06
6.2866e-06
6.60039e-06
5.66856e-06
7.28638e-06
4.75355e-06
7.64954e-06
3.62832e-06
7.672e-06
2.40093e-06
7.35894e-06
1.16672e-06
6.68019e-06
3.378e-08
5.69881e-06
-1.01076e-06
4.4753e-06
-1.8375e-06
3.13894e-06
-2.56543e-06
1.7415e-06
-3.6099e-06
2.21421e-07
-7.3576e-06
-5.46626e-07
-1.6858e-05
-2.24791e-05
-1.20702e-07
1.94147e-06
1.07825e-07
4.2455e-06
8.21732e-07
5.12949e-06
1.87537e-06
5.37592e-06
3.12366e-06
5.37721e-06
4.46333e-06
5.24689e-06
5.77263e-06
4.97731e-06
6.92088e-06
4.52031e-06
7.79276e-06
3.88167e-06
8.32147e-06
3.09961e-06
8.46363e-06
2.25877e-06
8.21346e-06
1.41688e-06
7.59617e-06
6.5107e-07
6.60833e-06
-2.29097e-08
5.3629e-06
-5.92078e-07
4.00922e-06
-1.21175e-06
2.71043e-06
-2.31112e-06
1.47014e-06
-6.1173e-06
3.21148e-07
-1.5709e-05
-2.2158e-05
-3.91609e-07
2.33308e-06
-3.11951e-07
4.16584e-06
3.55422e-07
4.46212e-06
1.44372e-06
4.28761e-06
2.76626e-06
4.05467e-06
4.18113e-06
3.83202e-06
5.56503e-06
3.59341e-06
6.81053e-06
3.27481e-06
7.80179e-06
2.8904e-06
8.47359e-06
2.42781e-06
8.77588e-06
1.95649e-06
8.71446e-06
1.47829e-06
8.29729e-06
1.06824e-06
7.58526e-06
6.8912e-07
6.64736e-06
3.45817e-07
5.64781e-06
-2.12201e-07
4.71707e-06
-1.38037e-06
3.58981e-06
-4.99005e-06
1.70065e-06
-1.38198e-05
-2.04573e-05
-4.00591e-06
6.33899e-06
-3.63632e-06
3.79625e-06
-1.90347e-06
2.72927e-06
7.47294e-09
2.37667e-06
1.89072e-06
2.17142e-06
3.73051e-06
1.99223e-06
5.48957e-06
1.83434e-06
7.10952e-06
1.65486e-06
8.51587e-06
1.48406e-06
9.66779e-06
1.27589e-06
1.05289e-05
1.09539e-06
1.11129e-05
8.94331e-07
1.14186e-05
7.62538e-07
1.15061e-05
6.01561e-07
1.13858e-05
4.66131e-07
1.1037e-05
1.36655e-07
1.05585e-05
-9.01939e-07
9.44883e-06
-3.88036e-06
5.36924e-06
-9.7402e-06
-1.50881e-05
6.33899e-06
1.01352e-05
1.28645e-05
1.52412e-05
1.74126e-05
1.94048e-05
2.12392e-05
2.2894e-05
2.43781e-05
2.5654e-05
2.67494e-05
2.76437e-05
2.84062e-05
2.90078e-05
2.94739e-05
2.96106e-05
2.87086e-05
2.48283e-05
1.50881e-05
)
;

boundaryField
{
    movingWall
    {
        type            calculated;
        value           uniform 0;
    }
    fixedWalls
    {
        type            calculated;
        value           uniform 0;
    }
    frontAndBack
    {
        type            empty;
        value           nonuniform List<scalar> 0();
    }
}


// ************************************************************************* //
