/*--------------------------------*- C++ -*----------------------------------*\
| =========                 |                                                 |
| \\      /  F ield         | OpenFOAM: The Open Source CFD Toolbox           |
|  \\    /   O peration     | Version:  2212                                  |
|   \\  /    A nd           | Website:  www.openfoam.com                      |
|    \\/     M anipulation  |                                                 |
\*---------------------------------------------------------------------------*/
FoamFile
{
    version     2.0;
    format      ascii;
    arch        "LSB;label=32;scalar=64";
    class       surfaceScalarField;
    location    "7.6";
    object      phi;
}
// * * * * * * * * * * * * * * * * * * * * * * * * * * * * * * * * * * * * * //

dimensions      [0 3 -1 0 0 0 0];

oriented        oriented;

internalField   nonuniform List<scalar> 
760
(
1.5603e-07
-1.56047e-07
2.93492e-07
-1.37462e-07
3.09817e-07
-1.63254e-08
1.83508e-07
1.26309e-07
-1.20438e-07
3.03946e-07
-6.65945e-07
5.45507e-07
-1.48509e-06
8.19144e-07
-2.49045e-06
1.00536e-06
-3.47976e-06
9.89309e-07
-4.2197e-06
7.39948e-07
-4.54341e-06
3.23708e-07
-4.35332e-06
-1.90091e-07
-3.59375e-06
-7.59575e-07
-2.37931e-06
-1.21444e-06
-9.40601e-07
-1.43871e-06
3.47048e-07
-1.28765e-06
1.08936e-06
-7.42311e-07
1.03276e-06
5.65985e-08
4.60889e-07
5.71872e-07
4.6089e-07
1.24936e-07
-2.80983e-07
7.43999e-08
-8.69259e-08
-2.97223e-07
3.55298e-07
-1.07897e-06
9.08053e-07
-2.31572e-06
1.5407e-06
-3.9268e-06
2.15659e-06
-5.66132e-06
2.55367e-06
-7.20578e-06
2.54981e-06
-8.33555e-06
2.11908e-06
-8.94091e-06
1.34531e-06
-8.97497e-06
3.57767e-07
-8.41522e-06
-7.49846e-07
-7.29299e-06
-1.88181e-06
-5.64179e-06
-2.86564e-06
-3.60594e-06
-3.47455e-06
-1.49063e-06
-3.40296e-06
1.78198e-07
-2.41114e-06
8.58605e-07
-6.2381e-07
5.25564e-07
9.04913e-07
9.86454e-07
-1.27692e-07
-1.53292e-07
-6.34022e-07
4.19404e-07
-1.62486e-06
1.34614e-06
-3.14106e-06
2.42425e-06
-5.05664e-06
3.45628e-06
-7.07201e-06
4.17197e-06
-8.87172e-06
4.35337e-06
-1.02757e-05
3.95379e-06
-1.12323e-05
3.07569e-06
-1.17338e-05
1.8468e-06
-1.1728e-05
3.51928e-07
-1.12692e-05
-1.20857e-06
-1.03368e-05
-2.8142e-06
-8.8766e-06
-4.32588e-06
-6.86881e-06
-5.48234e-06
-4.40291e-06
-5.86886e-06
-1.8788e-06
-4.93525e-06
-8.65996e-08
-2.41601e-06
2.94614e-07
5.23699e-07
1.28107e-06
-5.00501e-07
3.47209e-07
-1.55981e-06
1.47871e-06
-3.11897e-06
2.9053e-06
-5.08038e-06
4.38565e-06
-7.18373e-06
5.55963e-06
-9.12125e-06
6.10949e-06
-1.06907e-05
5.92284e-06
-1.18496e-05
5.11271e-06
-1.2626e-05
3.85211e-06
-1.30546e-05
2.27535e-06
-1.31197e-05
4.17053e-07
-1.28804e-05
-1.44791e-06
-1.22979e-05
-3.39672e-06
-1.12704e-05
-5.35339e-06
-9.66714e-06
-7.08555e-06
-7.36356e-06
-8.17244e-06
-4.39827e-06
-7.90055e-06
-1.37806e-06
-5.43621e-06
1.20653e-07
-9.75019e-07
1.40172e-06
-8.61782e-07
1.20899e-06
-2.36122e-06
2.97815e-06
-4.23183e-06
4.77591e-06
-6.27865e-06
6.43247e-06
-8.22055e-06
7.50153e-06
-9.83485e-06
7.72379e-06
-1.10449e-05
7.13288e-06
-1.18772e-05
5.94501e-06
-1.23936e-05
4.36847e-06
-1.26666e-05
2.54843e-06
-1.27872e-05
5.37629e-07
-1.27417e-05
-1.49339e-06
-1.25214e-05
-3.61708e-06
-1.20472e-05
-5.82757e-06
-1.1133e-05
-7.99979e-06
-9.49075e-06
-9.81466e-06
-6.82111e-06
-1.05702e-05
-3.2226e-06
-9.03472e-06
-2.61235e-07
-3.93638e-06
1.14049e-06
-1.0868e-06
2.29579e-06
-2.78389e-06
4.67524e-06
-4.67718e-06
6.66919e-06
-6.53473e-06
8.29002e-06
-8.13226e-06
9.09906e-06
-9.33876e-06
8.9303e-06
-1.01502e-05
7.94432e-06
-1.06317e-05
6.42651e-06
-1.08735e-05
4.61025e-06
-1.09753e-05
2.65019e-06
-1.10584e-05
6.20758e-07
-1.11091e-05
-1.44268e-06
-1.11436e-05
-3.5826e-06
-1.11329e-05
-5.83824e-06
-1.09237e-05
-8.20899e-06
-1.0189e-05
-1.05494e-05
-8.43443e-06
-1.23247e-05
-5.24407e-06
-1.22251e-05
-1.15854e-06
-8.02191e-06
-1.8052e-08
-1.11084e-06
3.40663e-06
-2.75846e-06
6.32286e-06
-4.45594e-06
8.36668e-06
-5.99151e-06
9.8256e-06
-7.2051e-06
1.03126e-05
-8.03436e-06
9.75955e-06
-8.51702e-06
8.42699e-06
-8.74008e-06
6.64957e-06
-8.80702e-06
4.67719e-06
-8.81461e-06
2.65778e-06
-8.84503e-06
6.5118e-07
-8.91651e-06
-1.3712e-06
-9.04899e-06
-3.45012e-06
-9.2541e-06
-5.63313e-06
-9.47573e-06
-7.98735e-06
-9.48302e-06
-1.05421e-05
-8.7572e-06
-1.30505e-05
-6.53993e-06
-1.44424e-05
-2.42445e-06
-1.21374e-05
-2.4425e-06
-9.3622e-07
4.34285e-06
-2.34809e-06
7.73473e-06
-3.73559e-06
9.75417e-06
-4.91521e-06
1.10052e-05
-5.78601e-06
1.11834e-05
-6.33118e-06
1.03047e-05
-6.60788e-06
8.70369e-06
-6.7071e-06
6.74879e-06
-6.72473e-06
4.69482e-06
-6.73355e-06
2.6666e-06
-6.76899e-06
6.86617e-07
-6.84787e-06
-1.29232e-06
-6.99112e-06
-3.30686e-06
-7.22939e-06
-5.39487e-06
-7.58018e-06
-7.63656e-06
-7.95334e-06
-1.01689e-05
-7.93968e-06
-1.30642e-05
-6.72126e-06
-1.56608e-05
-3.58899e-06
-1.52697e-05
-6.03149e-06
-6.25731e-07
4.96858e-06
-1.689e-06
8.79801e-06
-2.72287e-06
1.0788e-05
-3.56271e-06
1.18451e-05
-4.15302e-06
1.17737e-05
-4.50394e-06
1.06556e-05
-4.6744e-06
8.87414e-06
-4.74272e-06
6.81712e-06
-4.78108e-06
4.73318e-06
-4.83274e-06
2.71826e-06
-4.90757e-06
7.61446e-07
-5.01177e-06
-1.18812e-06
-5.15511e-06
-3.16352e-06
-5.36614e-06
-5.18384e-06
-5.70002e-06
-7.30269e-06
-6.1708e-06
-9.69815e-06
-6.56157e-06
-1.26734e-05
-6.13185e-06
-1.60905e-05
-3.92635e-06
-1.74752e-05
-9.95785e-06
-2.33087e-07
5.20167e-06
-8.94549e-07
9.45947e-06
-1.56684e-06
1.14603e-05
-2.09712e-06
1.23753e-05
-2.45774e-06
1.21344e-05
-2.67297e-06
1.08709e-05
-2.79101e-06
8.99219e-06
-2.86508e-06
6.89119e-06
-2.93967e-06
4.80777e-06
-3.03663e-06
2.81523e-06
-3.15868e-06
8.83495e-07
-3.30532e-06
-1.04147e-06
-3.4766e-06
-2.99224e-06
-3.6846e-06
-4.97584e-06
-3.97972e-06
-7.00758e-06
-4.44435e-06
-9.23352e-06
-5.02697e-06
-1.20908e-05
-5.12665e-06
-1.59908e-05
-3.56029e-06
-1.90415e-05
-1.35181e-05
1.63752e-07
5.03791e-06
-7.03267e-08
9.69355e-06
-4.03656e-07
1.17937e-05
-6.5505e-07
1.26267e-05
-8.1043e-07
1.22897e-05
-9.0093e-07
1.09614e-05
-9.65916e-07
9.05717e-06
-1.03725e-06
6.96252e-06
-1.13149e-06
4.902e-06
-1.25638e-06
2.94012e-06
-1.4145e-06
1.04162e-06
-1.60797e-06
-8.47998e-07
-1.83525e-06
-2.76496e-06
-2.09398e-06
-4.71711e-06
-2.4114e-06
-6.69016e-06
-2.87897e-06
-8.76594e-06
-3.56211e-06
-1.14077e-05
-4.02681e-06
-1.55261e-05
-3.02665e-06
-2.00417e-05
-1.65448e-05
5.02284e-07
4.53563e-06
7.00481e-07
9.49535e-06
7.4387e-07
1.17503e-05
7.79622e-07
1.2591e-05
8.24599e-07
1.22448e-05
8.53488e-07
1.09325e-05
8.46634e-07
9.06403e-06
7.95846e-07
7.01331e-06
7.01958e-07
4.99589e-06
5.66681e-07
3.0754e-06
3.84807e-07
1.22349e-06
1.50147e-07
-6.13336e-07
-1.38866e-07
-2.47595e-06
-4.88875e-07
-4.3671e-06
-9.03485e-07
-6.27555e-06
-1.42619e-06
-8.24324e-06
-2.20446e-06
-1.06294e-05
-2.95408e-06
-1.47765e-05
-2.461e-06
-2.05348e-05
-1.90058e-05
7.59404e-07
3.77623e-06
1.35897e-06
8.89579e-06
1.75329e-06
1.1356e-05
2.08421e-06
1.22601e-05
2.35862e-06
1.19703e-05
2.54639e-06
1.07447e-05
2.63942e-06
8.971e-06
2.64842e-06
7.00432e-06
2.58737e-06
5.05694e-06
2.46266e-06
3.2001e-06
2.26669e-06
1.41946e-06
1.98538e-06
-3.32021e-07
1.61935e-06
-2.10992e-06
1.16371e-06
-3.91145e-06
6.14175e-07
-5.72601e-06
-8.04166e-08
-7.54865e-06
-9.54176e-07
-9.75566e-06
-1.91731e-06
-1.38134e-05
-1.92437e-06
-2.05277e-05
-2.09302e-05
8.75049e-07
2.90118e-06
1.81813e-06
7.95271e-06
2.56287e-06
1.06112e-05
3.20666e-06
1.16163e-05
3.75698e-06
1.142e-05
4.17061e-06
1.03311e-05
4.43172e-06
8.70988e-06
4.55427e-06
6.88177e-06
4.5611e-06
5.05012e-06
4.46721e-06
3.29399e-06
4.27044e-06
1.61623e-06
3.93818e-06
2.43752e-10
3.49114e-06
-1.66288e-06
2.9037e-06
-3.32401e-06
2.17712e-06
-4.99943e-06
1.33047e-06
-6.702e-06
2.73372e-07
-8.69856e-06
-9.53924e-07
-1.25861e-05
-1.42525e-06
-2.00564e-05
-2.23554e-05
8.10929e-07
2.09025e-06
1.96393e-06
6.79971e-06
3.01112e-06
9.56402e-06
3.98875e-06
1.06386e-05
4.86992e-06
1.05389e-05
5.58861e-06
9.6124e-06
6.10572e-06
8.19278e-06
6.42419e-06
6.5633e-06
6.56477e-06
4.90954e-06
6.54531e-06
3.31344e-06
6.364e-06
1.79754e-06
6.01815e-06
3.46091e-07
5.4747e-06
-1.11943e-06
4.74115e-06
-2.59046e-06
3.80965e-06
-4.06792e-06
2.70922e-06
-5.60157e-06
1.40035e-06
-7.38969e-06
-1.49624e-07
-1.10361e-05
-9.09557e-07
-1.92964e-05
-2.3265e-05
5.81073e-07
1.50917e-06
1.76922e-06
5.61156e-06
3.11378e-06
8.21947e-06
4.47088e-06
9.28153e-06
5.74305e-06
9.2667e-06
6.83166e-06
8.52378e-06
7.67132e-06
7.35312e-06
8.24931e-06
5.98531e-06
8.57792e-06
4.58093e-06
8.67378e-06
3.21759e-06
8.54352e-06
1.9278e-06
8.18426e-06
7.05348e-07
7.5519e-06
-4.87067e-07
6.66385e-06
-1.70241e-06
5.50749e-06
-2.91156e-06
4.12384e-06
-4.21792e-06
2.58675e-06
-5.8526e-06
9.67818e-07
-9.41715e-06
-1.39495e-07
-1.81891e-05
-2.34045e-05
1.54118e-07
1.35506e-06
1.04786e-06
4.71781e-06
2.53201e-06
6.73531e-06
4.26141e-06
7.55213e-06
5.99072e-06
7.53739e-06
7.53219e-06
6.98231e-06
8.78313e-06
6.10218e-06
9.71371e-06
5.05472e-06
1.0319e-05
3.97566e-06
1.06103e-05
2.92629e-06
1.05935e-05
1.94455e-06
1.02743e-05
1.02463e-06
9.60621e-06
1.80971e-07
8.61181e-06
-7.0801e-07
7.28093e-06
-1.58068e-06
5.66571e-06
-2.6027e-06
3.92725e-06
-4.11415e-06
2.24963e-06
-7.73953e-06
6.56525e-07
-1.6596e-05
-2.27479e-05
-5.18976e-07
1.87403e-06
2.03461e-07
3.99538e-06
1.7669e-06
5.17187e-06
3.83964e-06
5.47939e-06
6.00452e-06
5.37252e-06
7.97456e-06
5.01227e-06
9.61314e-06
4.4636e-06
1.08787e-05
3.78917e-06
1.17537e-05
3.10069e-06
1.22542e-05
2.42578e-06
1.23837e-05
1.81504e-06
1.21619e-05
1.24638e-06
1.1613e-05
7.29848e-07
1.07074e-05
1.97595e-07
9.44982e-06
-3.23064e-07
7.91381e-06
-1.06669e-06
6.28529e-06
-2.48563e-06
4.4659e-06
-5.92014e-06
2.05939e-06
-1.41895e-05
-2.06886e-05
-4.18137e-06
6.0554e-06
-3.64398e-06
3.45798e-06
-1.24407e-06
2.77197e-06
1.56172e-06
2.6736e-06
4.30955e-06
2.62469e-06
6.85239e-06
2.46943e-06
9.0766e-06
2.23938e-06
1.09217e-05
1.94406e-06
1.23692e-05
1.65325e-06
1.34459e-05
1.34906e-06
1.41689e-05
1.09204e-06
1.45829e-05
8.3234e-07
1.46756e-05
6.37145e-07
1.4456e-05
4.17243e-07
1.39199e-05
2.13069e-07
1.30831e-05
-2.29921e-07
1.19336e-05
-1.33619e-06
1.01163e-05
-4.10282e-06
5.63944e-06
-9.71261e-06
-1.50491e-05
6.0554e-06
9.51339e-06
1.22854e-05
1.49589e-05
1.75836e-05
2.00531e-05
2.22925e-05
2.42365e-05
2.58898e-05
2.72388e-05
2.83309e-05
2.91632e-05
2.98003e-05
3.02176e-05
3.04307e-05
3.02007e-05
2.88645e-05
2.47617e-05
1.50491e-05
)
;

boundaryField
{
    movingWall
    {
        type            calculated;
        value           uniform 0;
    }
    fixedWalls
    {
        type            calculated;
        value           uniform 0;
    }
    frontAndBack
    {
        type            empty;
        value           nonuniform List<scalar> 0();
    }
}


// ************************************************************************* //
