/*--------------------------------*- C++ -*----------------------------------*\
| =========                 |                                                 |
| \\      /  F ield         | OpenFOAM: The Open Source CFD Toolbox           |
|  \\    /   O peration     | Version:  2212                                  |
|   \\  /    A nd           | Website:  www.openfoam.com                      |
|    \\/     M anipulation  |                                                 |
\*---------------------------------------------------------------------------*/
FoamFile
{
    version     2.0;
    format      ascii;
    arch        "LSB;label=32;scalar=64";
    class       volVectorField;
    location    "7.6";
    object      U;
}
// * * * * * * * * * * * * * * * * * * * * * * * * * * * * * * * * * * * * * //

dimensions      [0 1 -1 0 0 0 0];

internalField   nonuniform List<vector> 
400
(
(0.00168129 -0.00168304 0)
(0.0048368 -0.00189147 0)
(0.00658793 -0.0012003 0)
(0.00567117 -0.000574849 0)
(0.00156886 0.000184229 0)
(-0.00683105 0.00173934 0)
(-0.0206071 0.00478531 0)
(-0.0395357 0.00873374 0)
(-0.0608014 0.0112901 0)
(-0.0791258 0.0105111 0)
(-0.0898019 0.00677468 0)
(-0.0904557 0.00167036 0)
(-0.0802238 -0.00361423 0)
(-0.0599974 -0.00827251 0)
(-0.0335297 -0.0108452 0)
(-0.00530484 -0.00979454 0)
(0.0167113 -0.00477477 0)
(0.0244614 0.00277462 0)
(0.0161748 0.00647024 0)
(0.00431592 0.00471617 0)
(0.00171934 -0.00506251 0)
(0.00315938 -0.00402967 0)
(-0.000421532 0.000589016 0)
(-0.0113332 0.0064414 0)
(-0.0314256 0.0140479 0)
(-0.0611426 0.0237689 0)
(-0.0968316 0.033054 0)
(-0.131438 0.037085 0)
(-0.158948 0.0335123 0)
(-0.176079 0.0233999 0)
(-0.181428 0.00911166 0)
(-0.175061 -0.00698464 0)
(-0.157548 -0.0231666 0)
(-0.129644 -0.0369061 0)
(-0.0936137 -0.0445591 0)
(-0.0521995 -0.0418356 0)
(-0.0114089 -0.0263363 0)
(0.01688 -0.00128508 0)
(0.0178669 0.0162179 0)
(0.00554132 0.0148167 0)
(-0.000240773 -0.00577568 0)
(-0.00538353 0.00080602 0)
(-0.0196108 0.0142994 0)
(-0.0445011 0.0312312 0)
(-0.0803303 0.0494358 0)
(-0.122185 0.0643072 0)
(-0.162322 0.0705326 0)
(-0.195239 0.0660173 0)
(-0.218829 0.0521842 0)
(-0.232495 0.0315327 0)
(-0.236252 0.00642113 0)
(-0.23077 -0.0211034 0)
(-0.21636 -0.0488594 0)
(-0.19252 -0.073212 0)
(-0.158989 -0.0890136 0)
(-0.115733 -0.0892216 0)
(-0.0645615 -0.0670285 0)
(-0.0138264 -0.0226731 0)
(0.00947803 0.0179088 0)
(0.00415533 0.0235748 0)
(-0.00347208 0.000458914 0)
(-0.0175139 0.0172433 0)
(-0.0435117 0.0414962 0)
(-0.0796706 0.0681826 0)
(-0.122938 0.091143 0)
(-0.165823 0.103829 0)
(-0.201887 0.102885 0)
(-0.229205 0.089657 0)
(-0.24804 0.0673175 0)
(-0.258993 0.0385783 0)
(-0.262901 0.00532402 0)
(-0.260571 -0.0311028 0)
(-0.251942 -0.0684351 0)
(-0.235969 -0.103721 0)
(-0.210664 -0.131469 0)
(-0.173325 -0.142874 0)
(-0.12139 -0.125757 0)
(-0.056842 -0.0708566 0)
(-0.000989935 0.00355516 0)
(0.00474219 0.0282338 0)
(-0.00666184 0.0147869 0)
(-0.0287255 0.0441097 0)
(-0.0632795 0.077084 0)
(-0.104443 0.108902 0)
(-0.147254 0.131186 0)
(-0.184546 0.138173 0)
(-0.212879 0.129483 0)
(-0.232657 0.10873 0)
(-0.24517 0.0797867 0)
(-0.252143 0.045445 0)
(-0.255262 0.00724776 0)
(-0.255445 -0.0339805 0)
(-0.25247 -0.0770583 0)
(-0.245794 -0.120657 0)
(-0.232606 -0.160793 0)
(-0.208291 -0.189007 0)
(-0.166799 -0.189964 0)
(-0.103438 -0.142874 0)
(-0.0221833 -0.0388618 0)
(0.00738011 0.027093 0)
(-0.00850909 0.0348735 0)
(-0.0351705 0.0766325 0)
(-0.0730789 0.114937 0)
(-0.113242 0.147679 0)
(-0.150498 0.166008 0)
(-0.179355 0.165945 0)
(-0.198874 0.149738 0)
(-0.210614 0.122484 0)
(-0.216558 0.0885309 0)
(-0.219185 0.0508654 0)
(-0.220452 0.0109623 0)
(-0.221354 -0.0307382 0)
(-0.222091 -0.0746908 0)
(-0.222772 -0.121255 0)
(-0.221208 -0.169199 0)
(-0.212315 -0.213034 0)
(-0.188004 -0.238568 0)
(-0.139672 -0.218528 0)
(-0.0628421 -0.118939 0)
(0.00584575 0.0141972 0)
(-0.0082908 0.057001 0)
(-0.0353344 0.109999 0)
(-0.0718224 0.150475 0)
(-0.107056 0.18116 0)
(-0.136685 0.193851 0)
(-0.157086 0.186457 0)
(-0.16899 0.163297 0)
(-0.174521 0.130518 0)
(-0.176087 0.0928813 0)
(-0.176179 0.0534006 0)
(-0.176289 0.0133204 0)
(-0.17709 -0.0272877 0)
(-0.179128 -0.06954 0)
(-0.182945 -0.114683 0)
(-0.187905 -0.163813 0)
(-0.190386 -0.215786 0)
(-0.182507 -0.261644 0)
(-0.154265 -0.275169 0)
(-0.0993902 -0.205904 0)
(-0.0089079 -0.0146298 0)
(-0.00613387 0.0775921 0)
(-0.0297862 0.140546 0)
(-0.0614153 0.181207 0)
(-0.0898803 0.208316 0)
(-0.111885 0.214903 0)
(-0.125417 0.200577 0)
(-0.1321 0.171348 0)
(-0.134243 0.13419 0)
(-0.134297 0.0940844 0)
(-0.134189 0.0537352 0)
(-0.134591 0.0138669 0)
(-0.135684 -0.0258633 0)
(-0.13792 -0.0664387 0)
(-0.141993 -0.109042 0)
(-0.148519 -0.155626 0)
(-0.156197 -0.208546 0)
(-0.159063 -0.265882 0)
(-0.146743 -0.308126 0)
(-0.112248 -0.277206 0)
(-0.030962 -0.0753362 0)
(-0.00272892 0.0936072 0)
(-0.0204142 0.165632 0)
(-0.045145 0.205594 0)
(-0.0663362 0.22858 0)
(-0.0816011 0.22954 0)
(-0.0900875 0.209553 0)
(-0.0937134 0.175803 0)
(-0.0946173 0.13577 0)
(-0.0948862 0.0944338 0)
(-0.0956746 0.0540088 0)
(-0.0970201 0.0145938 0)
(-0.0988289 -0.0245587 0)
(-0.101268 -0.0641837 0)
(-0.104842 -0.104936 0)
(-0.110698 -0.148409 0)
(-0.119573 -0.198533 0)
(-0.128338 -0.259776 0)
(-0.12652 -0.323451 0)
(-0.107477 -0.334762 0)
(-0.0373471 -0.163431 0)
(0.00121969 0.10275 0)
(-0.0089407 0.18347 0)
(-0.0256401 0.223146 0)
(-0.0396363 0.242761 0)
(-0.0491129 0.239524 0)
(-0.0539824 0.21555 0)
(-0.0559468 0.178795 0)
(-0.0566531 0.137101 0)
(-0.0576075 0.0953568 0)
(-0.0593445 0.0552418 0)
(-0.0616342 0.016306 0)
(-0.0643331 -0.0224662 0)
(-0.0674327 -0.0616857 0)
(-0.0711114 -0.101556 0)
(-0.0763021 -0.142749 0)
(-0.0845748 -0.188893 0)
(-0.0960536 -0.248331 0)
(-0.100648 -0.324313 0)
(-0.0951713 -0.372226 0)
(-0.0309223 -0.242575 0)
(0.00511747 0.103915 0)
(0.00295793 0.193068 0)
(-0.00538745 0.233638 0)
(-0.0125024 0.250791 0)
(-0.0168914 0.244703 0)
(-0.0187763 0.218486 0)
(-0.0194615 0.180425 0)
(-0.0199861 0.138352 0)
(-0.0212811 0.0969061 0)
(-0.0235147 0.0573875 0)
(-0.026402 0.0190739 0)
(-0.029884 -0.0191441 0)
(-0.0339773 -0.0579254 0)
(-0.0386209 -0.097325 0)
(-0.0443612 -0.137264 0)
(-0.0524267 -0.180131 0)
(-0.0657507 -0.235621 0)
(-0.0742198 -0.318086 0)
(-0.0811982 -0.396728 0)
(-0.0229417 -0.307131 0)
(0.00845497 0.0974421 0)
(0.0142177 0.19406 0)
(0.0141011 0.23716 0)
(0.0137072 0.253571 0)
(0.0143303 0.246488 0)
(0.0155276 0.219779 0)
(0.0163878 0.181731 0)
(0.0164421 0.14002 0)
(0.0153041 0.0990912 0)
(0.0130263 0.0601847 0)
(0.00985833 0.0226148 0)
(0.00575129 -0.0147319 0)
(0.000562217 -0.0526442 0)
(-0.00556045 -0.0912217 0)
(-0.0130252 -0.130096 0)
(-0.0219719 -0.170269 0)
(-0.0377142 -0.220659 0)
(-0.0487326 -0.304444 0)
(-0.0679057 -0.408473 0)
(-0.0144597 -0.360013 0)
(0.0103248 0.0844672 0)
(0.0234116 0.186466 0)
(0.0310737 0.233284 0)
(0.037002 0.250116 0)
(0.0426623 0.243274 0)
(0.0476154 0.217488 0)
(0.0510507 0.180727 0)
(0.052724 0.140325 0)
(0.0525895 0.100574 0)
(0.0508572 0.0627828 0)
(0.0477457 0.0264438 0)
(0.0431385 -0.00950347 0)
(0.036868 -0.0459536 0)
(0.0290573 -0.083065 0)
(0.0189089 -0.120472 0)
(0.00758828 -0.158403 0)
(-0.0118226 -0.20437 0)
(-0.0242483 -0.286445 0)
(-0.0558488 -0.410982 0)
(-0.00613912 -0.401863 0)
(0.00987302 0.0672233 0)
(0.0290194 0.170661 0)
(0.0443415 0.222197 0)
(0.0568809 0.241285 0)
(0.0681716 0.236354 0)
(0.0778554 0.212992 0)
(0.0850731 0.178701 0)
(0.0895236 0.140365 0)
(0.0912839 0.102214 0)
(0.0906543 0.0657934 0)
(0.0879659 0.0309657 0)
(0.082917 -0.00328837 0)
(0.0754058 -0.0375063 0)
(0.0657191 -0.0722661 0)
(0.052476 -0.107374 0)
(0.0375508 -0.142711 0)
(0.013117 -0.184202 0)
(6.63101e-05 -0.263209 0)
(-0.0448049 -0.406686 0)
(0.00276315 -0.436246 0)
(0.00692602 0.0493938 0)
(0.0293527 0.148945 0)
(0.0510955 0.203612 0)
(0.0699697 0.224523 0)
(0.0874416 0.221662 0)
(0.103132 0.201503 0)
(0.115797 0.170911 0)
(0.124757 0.136025 0)
(0.129923 0.100836 0)
(0.131539 0.0670218 0)
(0.129871 0.0348316 0)
(0.124947 0.00344047 0)
(0.116318 -0.0274354 0)
(0.104591 -0.0586554 0)
(0.0875072 -0.0902638 0)
(0.0683269 -0.122872 0)
(0.0382736 -0.160794 0)
(0.0238437 -0.237115 0)
(-0.0344488 -0.398938 0)
(0.0134713 -0.464412 0)
(0.0023856 0.0346305 0)
(0.0236305 0.123886 0)
(0.0509402 0.179926 0)
(0.0766664 0.202916 0)
(0.101326 0.202601 0)
(0.124204 0.186199 0)
(0.143653 0.160145 0)
(0.158455 0.129718 0)
(0.168194 0.098533 0)
(0.173079 0.0682781 0)
(0.17305 0.0395502 0)
(0.168821 0.0119426 0)
(0.158987 -0.0148889 0)
(0.145259 -0.0416788 0)
(0.123965 -0.0687092 0)
(0.100435 -0.0975031 0)
(0.0645923 -0.132659 0)
(0.0469896 -0.207422 0)
(-0.0227151 -0.387066 0)
(0.0285277 -0.485546 0)
(-0.00342521 0.0286229 0)
(0.0100646 0.101496 0)
(0.0370953 0.148679 0)
(0.0689535 0.169437 0)
(0.101842 0.170653 0)
(0.133555 0.158361 0)
(0.161547 0.137927 0)
(0.184086 0.113528 0)
(0.200128 0.0882466 0)
(0.210047 0.0636133 0)
(0.212968 0.0403731 0)
(0.210712 0.0184072 0)
(0.20045 -0.00265915 0)
(0.185823 -0.0232854 0)
(0.161017 -0.0439432 0)
(0.13441 -0.0677005 0)
(0.0928924 -0.101652 0)
(0.0698588 -0.179984 0)
(-0.00437731 -0.370041 0)
(0.0521564 -0.491635 0)
(-0.0140056 0.0185264 0)
(-0.00751501 0.0881783 0)
(0.0192094 0.124185 0)
(0.0564339 0.137303 0)
(0.0975791 0.13689 0)
(0.137953 0.127706 0)
(0.174198 0.11305 0)
(0.204036 0.0952732 0)
(0.225924 0.0768048 0)
(0.241012 0.0586614 0)
(0.247043 0.0417962 0)
(0.247958 0.0261096 0)
(0.238622 0.0117545 0)
(0.22681 -0.00203036 0)
(0.201821 -0.0160648 0)
(0.177849 -0.0349989 0)
(0.133517 -0.0677778 0)
(0.107821 -0.145987 0)
(0.037464 -0.326118 0)
(0.0923641 -0.455871 0)
(-0.106015 0.0824244 0)
(-0.0777557 0.0689966 0)
(-0.0485685 0.0733667 0)
(0.00377211 0.0778809 0)
(0.0572779 0.0782113 0)
(0.11 0.0739456 0)
(0.15716 0.0666107 0)
(0.199514 0.0572077 0)
(0.231618 0.0475346 0)
(0.259765 0.0378815 0)
(0.27549 0.0292185 0)
(0.290645 0.0212363 0)
(0.291001 0.0144829 0)
(0.295117 0.00810237 0)
(0.278825 0.00113706 0)
(0.271621 -0.0100007 0)
(0.232321 -0.0355574 0)
(0.218132 -0.0954147 0)
(0.150206 -0.229723 0)
(0.170672 -0.341457 0)
(0.129971 0.103746 0)
(0.158325 0.0752325 0)
(0.212173 0.053233 0)
(0.270681 0.0416271 0)
(0.323254 0.035916 0)
(0.375691 0.0319502 0)
(0.420279 0.0289172 0)
(0.465591 0.0255813 0)
(0.498682 0.0229034 0)
(0.533927 0.0197113 0)
(0.553363 0.017549 0)
(0.579173 0.0146117 0)
(0.585313 0.0131675 0)
(0.603656 0.010349 0)
(0.595082 0.00938702 0)
(0.60359 0.00500291 0)
(0.567789 9.16738e-05 0)
(0.547617 -0.0183145 0)
(0.435698 -0.0504145 0)
(0.336757 -0.101386 0)
)
;

boundaryField
{
    movingWall
    {
        type            fixedValue;
        value           uniform (1 0 0);
    }
    fixedWalls
    {
        type            noSlip;
    }
    frontAndBack
    {
        type            empty;
    }
}


// ************************************************************************* //
