/*--------------------------------*- C++ -*----------------------------------*\
| =========                 |                                                 |
| \\      /  F ield         | OpenFOAM: The Open Source CFD Toolbox           |
|  \\    /   O peration     | Version:  2212                                  |
|   \\  /    A nd           | Website:  www.openfoam.com                      |
|    \\/     M anipulation  |                                                 |
\*---------------------------------------------------------------------------*/
FoamFile
{
    version     2.0;
    format      ascii;
    arch        "LSB;label=32;scalar=64";
    class       volScalarField;
    location    "10.7";
    object      p;
}
// * * * * * * * * * * * * * * * * * * * * * * * * * * * * * * * * * * * * * //

dimensions      [0 2 -2 0 0 0 0];

internalField   nonuniform List<scalar> 
400
(
6.1993e-07
-0.000150361
-0.000534439
-0.00107164
-0.00173236
-0.00249383
-0.00318496
-0.00359753
-0.0035653
-0.00293403
-0.00154848
0.000619467
0.00324968
0.00551421
0.00653393
0.0059231
0.00400234
0.00214992
0.00111089
0.00104181
0.000116526
-5.78875e-05
-0.000376833
-0.000764007
-0.00124392
-0.00188805
-0.00270616
-0.00354348
-0.00407996
-0.00393838
-0.00284638
-0.000824802
0.00168946
0.00396103
0.00512486
0.0047433
0.00310326
0.00137505
0.000593454
0.00068445
0.000536644
0.000265176
-7.71156e-05
-0.000559473
-0.00134718
-0.00258057
-0.00421911
-0.00598376
-0.00740254
-0.00794385
-0.00726416
-0.00546195
-0.00289159
-0.000194568
0.00179186
0.0024279
0.001709
0.000502329
-0.000395843
-0.000392578
0.00115215
0.000741467
0.000192081
-0.000774648
-0.00245103
-0.00493779
-0.00799512
-0.0111205
-0.0137033
-0.0151768
-0.0152067
-0.0138398
-0.0112935
-0.00802898
-0.00475217
-0.00220967
-0.000870355
-0.000706195
-0.00128879
-0.00191812
0.00158353
0.000973935
-2.26817e-05
-0.00192395
-0.00500658
-0.00918001
-0.0139136
-0.0184796
-0.0222159
-0.0246526
-0.0255282
-0.0247225
-0.0223631
-0.0187432
-0.0143044
-0.00965555
-0.00559202
-0.00294886
-0.00219324
-0.00401794
0.00129357
0.000445237
-0.00119716
-0.00430425
-0.00900491
-0.0148804
-0.0210725
-0.0267149
-0.0311907
-0.0341779
-0.0355447
-0.0351887
-0.0331962
-0.029718
-0.0248989
-0.0189606
-0.012505
-0.00694825
-0.00440084
-0.00652412
-4.81041e-05
-0.00114735
-0.00349926
-0.00779667
-0.0139323
-0.0211141
-0.0282357
-0.0344071
-0.0391279
-0.0422311
-0.0437188
-0.0436094
-0.0419717
-0.0388778
-0.03431
-0.0281565
-0.0205386
-0.0127026
-0.00785467
-0.0077479
-0.00245026
-0.00374196
-0.00669838
-0.0119131
-0.0190395
-0.0269814
-0.0345035
-0.0407783
-0.0454497
-0.0484758
-0.0499384
-0.0499297
-0.048529
-0.0457872
-0.0416613
-0.0359258
-0.028325
-0.0193706
-0.011822
-0.00798043
-0.0055374
-0.00691497
-0.0102634
-0.0160216
-0.0236577
-0.0318889
-0.0394505
-0.0456118
-0.0501361
-0.0530561
-0.0544851
-0.0545252
-0.0532511
-0.0507243
-0.0469608
-0.041811
-0.034867
-0.0259471
-0.0167088
-0.00999434
-0.00873347
-0.0100856
-0.0135973
-0.0195418
-0.0272858
-0.0354863
-0.0429111
-0.0489085
-0.0533079
-0.0561657
-0.0575895
-0.0576608
-0.0564424
-0.0540095
-0.0504497
-0.0457592
-0.0396331
-0.0315233
-0.0223207
-0.0143395
-0.0115038
-0.0127576
-0.0162189
-0.0220538
-0.0296064
-0.0375877
-0.0448252
-0.0506978
-0.055041
-0.0578922
-0.0593344
-0.0594259
-0.0582168
-0.055787
-0.0522852
-0.047851
-0.04243
-0.0353818
-0.0271973
-0.0191788
-0.013549
-0.0146183
-0.0178554
-0.0233148
-0.0304301
-0.0380617
-0.0451164
-0.050948
-0.0553271
-0.0582383
-0.0597258
-0.0598282
-0.0585863
-0.0560811
-0.0525138
-0.0481367
-0.0432057
-0.0370554
-0.0300312
-0.0224166
-0.014837
-0.0155674
-0.0183513
-0.0232095
-0.0296924
-0.0368776
-0.0437632
-0.0496384
-0.0541528
-0.0571987
-0.0587677
-0.0588748
-0.0575556
-0.0549138
-0.0511754
-0.0466544
-0.0419643
-0.0362992
-0.0302254
-0.0228953
-0.0154673
-0.0157216
-0.0177767
-0.0217456
-0.0273887
-0.0340304
-0.040749
-0.0467388
-0.0514909
-0.054766
-0.0564798
-0.0566209
-0.0551993
-0.0523509
-0.0483444
-0.0435804
-0.0387296
-0.0331406
-0.028099
-0.0202787
-0.0155739
-0.0152977
-0.0163375
-0.0190871
-0.0236522
-0.029633
-0.0361702
-0.0423342
-0.0474258
-0.0510374
-0.052978
-0.0531813
-0.0516889
-0.0485896
-0.0442252
-0.0390527
-0.033781
-0.028071
-0.024231
-0.0143846
-0.0152763
-0.0145497
-0.0142603
-0.0154254
-0.0186841
-0.0238937
-0.0302303
-0.0366134
-0.0421362
-0.0461994
-0.0484875
-0.0488645
-0.0473514
-0.0440194
-0.0392477
-0.0335181
-0.0276407
-0.021629
-0.0180533
-0.00383277
-0.0146616
-0.0136178
-0.0117064
-0.0110806
-0.0129531
-0.0173796
-0.0235332
-0.0301693
-0.036192
-0.04081
-0.0435771
-0.0442601
-0.0428491
-0.0393751
-0.0341843
-0.0276892
-0.020682
-0.0132762
-0.00678597
0.0160528
-0.0145828
-0.0126568
-0.00864814
-0.00623434
-0.00690978
-0.0107454
-0.0168173
-0.0237391
-0.0302976
-0.035538
-0.0389023
-0.0400337
-0.0388763
-0.035447
-0.0298952
-0.0222755
-0.0128727
-0.000688511
0.0166946
0.0570635
-0.0117942
-0.0118304
-0.00572586
-0.00177487
-0.00176485
-0.0054045
-0.0115748
-0.0188143
-0.0258747
-0.0316864
-0.0356611
-0.0373607
-0.0366842
-0.0333544
-0.0272236
-0.0175414
-0.00314844
0.0204898
0.0607038
0.129821
-0.0295164
-0.0106294
-0.000608676
0.00308091
0.00244833
-0.00155685
-0.00799912
-0.0155528
-0.0229754
-0.0291728
-0.0335308
-0.0355868
-0.0352001
-0.0319549
-0.025227
-0.0128598
0.00942246
0.0511711
0.122877
0.226076
)
;

boundaryField
{
    movingWall
    {
        type            zeroGradient;
    }
    fixedWalls
    {
        type            zeroGradient;
    }
    frontAndBack
    {
        type            empty;
    }
}


// ************************************************************************* //
