/*--------------------------------*- C++ -*----------------------------------*\
| =========                 |                                                 |
| \\      /  F ield         | OpenFOAM: The Open Source CFD Toolbox           |
|  \\    /   O peration     | Version:  2212                                  |
|   \\  /    A nd           | Website:  www.openfoam.com                      |
|    \\/     M anipulation  |                                                 |
\*---------------------------------------------------------------------------*/
FoamFile
{
    version     2.0;
    format      ascii;
    arch        "LSB;label=32;scalar=64";
    class       surfaceScalarField;
    location    "10.7";
    object      phi;
}
// * * * * * * * * * * * * * * * * * * * * * * * * * * * * * * * * * * * * * //

dimensions      [0 3 -1 0 0 0 0];

oriented        oriented;

internalField   nonuniform List<scalar> 
760
(
1.56077e-07
-1.56133e-07
2.93625e-07
-1.37549e-07
3.0999e-07
-1.63647e-08
1.83681e-07
1.26309e-07
-1.20308e-07
3.03989e-07
-6.65928e-07
5.4562e-07
-1.48527e-06
8.19343e-07
-2.49086e-06
1.00559e-06
-3.48034e-06
9.89482e-07
-4.22034e-06
7.39994e-07
-4.54396e-06
3.23628e-07
-4.35364e-06
-1.90322e-07
-3.59375e-06
-7.59889e-07
-2.37899e-06
-1.21477e-06
-9.40019e-07
-1.43897e-06
3.47748e-07
-1.28777e-06
1.08994e-06
-7.42188e-07
1.03308e-06
5.68566e-08
4.60996e-07
5.72083e-07
4.60995e-07
1.25045e-07
-2.81178e-07
7.46055e-08
-8.71089e-08
-2.97029e-07
3.5527e-07
-1.07891e-06
9.08192e-07
-2.31594e-06
1.54102e-06
-3.92741e-06
2.15709e-06
-5.66232e-06
2.55425e-06
-7.20704e-06
2.55032e-06
-8.33694e-06
2.11938e-06
-8.94229e-06
1.34534e-06
-8.97621e-06
3.5755e-07
-8.41621e-06
-7.50324e-07
-7.29363e-06
-1.88247e-06
-5.64204e-06
-2.86637e-06
-3.60582e-06
-3.47518e-06
-1.49023e-06
-3.40335e-06
1.78726e-07
-2.41115e-06
8.58987e-07
-6.23402e-07
5.25709e-07
9.05363e-07
9.86703e-07
-1.27602e-07
-1.53576e-07
-6.33936e-07
4.19225e-07
-1.62494e-06
1.34628e-06
-3.1415e-06
2.42475e-06
-5.05756e-06
3.45708e-06
-7.07342e-06
4.17295e-06
-8.87351e-06
4.35433e-06
-1.02778e-05
3.95457e-06
-1.12345e-05
3.07616e-06
-1.17361e-05
1.84689e-06
-1.17301e-05
3.51593e-07
-1.12712e-05
-1.20924e-06
-1.03385e-05
-2.81517e-06
-8.87786e-06
-4.32702e-06
-6.8696e-06
-5.48345e-06
-4.40323e-06
-5.86972e-06
-1.87874e-06
-4.93563e-06
-8.63996e-08
-2.41575e-06
2.94691e-07
5.24273e-07
1.28139e-06
-5.00534e-07
3.46958e-07
-1.56001e-06
1.4787e-06
-3.11954e-06
2.90581e-06
-5.08146e-06
4.38667e-06
-7.18537e-06
5.56099e-06
-9.12338e-06
6.11096e-06
-1.06932e-05
5.92419e-06
-1.18524e-05
5.11378e-06
-1.26291e-05
3.85279e-06
-1.30577e-05
2.27554e-06
-1.31228e-05
4.16639e-07
-1.28833e-05
-1.44875e-06
-1.23004e-05
-3.39799e-06
-1.12725e-05
-5.35493e-06
-9.66881e-06
-7.08716e-06
-7.36467e-06
-8.17386e-06
-4.39878e-06
-7.90152e-06
-1.37807e-06
-5.43646e-06
1.20735e-07
-9.74531e-07
1.40213e-06
-8.61963e-07
1.20892e-06
-2.36176e-06
2.9785e-06
-4.23288e-06
4.77693e-06
-6.28028e-06
6.43406e-06
-8.22272e-06
7.50343e-06
-9.83748e-06
7.72572e-06
-1.10479e-05
7.13462e-06
-1.18805e-05
5.94641e-06
-1.23971e-05
4.3694e-06
-1.26703e-05
2.54875e-06
-1.27909e-05
5.37226e-07
-1.27453e-05
-1.4944e-06
-1.25246e-05
-3.61866e-06
-1.205e-05
-5.82953e-06
-1.11353e-05
-8.00187e-06
-9.49255e-06
-9.81662e-06
-6.82227e-06
-1.05718e-05
-3.22302e-06
-9.03571e-06
-2.61169e-07
-3.93638e-06
1.14096e-06
-1.08713e-06
2.29605e-06
-2.7847e-06
4.67608e-06
-4.67855e-06
6.67078e-06
-6.53667e-06
8.29218e-06
-8.1347e-06
9.10146e-06
-9.34163e-06
8.93266e-06
-1.01535e-05
7.94646e-06
-1.06354e-05
6.42829e-06
-1.08775e-05
4.6115e-06
-1.09794e-05
2.65072e-06
-1.10626e-05
6.20434e-07
-1.11132e-05
-1.44386e-06
-1.11473e-05
-3.58454e-06
-1.11361e-05
-5.84068e-06
-1.09264e-05
-8.2116e-06
-1.01912e-05
-1.05519e-05
-8.4361e-06
-1.23269e-05
-5.24507e-06
-1.22267e-05
-1.15867e-06
-8.02278e-06
-1.77125e-08
-1.11125e-06
3.4073e-06
-2.7594e-06
6.32423e-06
-4.45743e-06
8.36881e-06
-5.99352e-06
9.82827e-06
-7.20756e-06
1.03155e-05
-8.03725e-06
9.76235e-06
-8.52037e-06
8.42958e-06
-8.74389e-06
6.65181e-06
-8.81126e-06
4.67887e-06
-8.81919e-06
2.65865e-06
-8.84974e-06
6.50988e-07
-8.92109e-06
-1.37251e-06
-9.05318e-06
-3.45244e-06
-9.2577e-06
-5.63616e-06
-9.47867e-06
-7.99063e-06
-9.48535e-06
-1.05452e-05
-8.75905e-06
-1.30532e-05
-6.54127e-06
-1.44445e-05
-2.42497e-06
-1.21391e-05
-2.44268e-06
-9.36631e-07
4.34393e-06
-2.349e-06
7.7366e-06
-3.73698e-06
9.75678e-06
-4.91705e-06
1.10083e-05
-5.78828e-06
1.11867e-05
-6.33389e-06
1.0308e-05
-6.61107e-06
8.70676e-06
-6.71082e-06
6.75156e-06
-6.72897e-06
4.69702e-06
-6.73819e-06
2.66788e-06
-6.77382e-06
6.86617e-07
-6.85263e-06
-1.2937e-06
-6.99554e-06
-3.30954e-06
-7.23319e-06
-5.39851e-06
-7.58321e-06
-7.64062e-06
-7.95561e-06
-1.01728e-05
-7.94139e-06
-1.30674e-05
-6.72257e-06
-1.56633e-05
-3.58985e-06
-1.52718e-05
-6.03254e-06
-6.26063e-07
4.96999e-06
-1.68975e-06
8.80029e-06
-2.72401e-06
1.0791e-05
-3.56422e-06
1.18486e-05
-4.1549e-06
1.17774e-05
-4.50623e-06
1.06593e-05
-4.67714e-06
8.87768e-06
-4.74597e-06
6.82039e-06
-4.7848e-06
4.73585e-06
-4.83684e-06
2.71991e-06
-4.91188e-06
7.6166e-07
-5.01609e-06
-1.1895e-06
-5.15921e-06
-3.16642e-06
-5.36976e-06
-5.18796e-06
-5.70292e-06
-7.30745e-06
-6.17289e-06
-9.7028e-06
-6.56301e-06
-1.26773e-05
-6.13293e-06
-1.60934e-05
-3.9271e-06
-1.74776e-05
-9.95964e-06
-2.33273e-07
5.20326e-06
-8.95028e-07
9.46204e-06
-1.56759e-06
1.14636e-05
-2.09814e-06
1.23791e-05
-2.45903e-06
1.21383e-05
-2.67458e-06
1.08748e-05
-2.79297e-06
8.99607e-06
-2.86742e-06
6.89483e-06
-2.94236e-06
4.81079e-06
-3.0396e-06
2.81715e-06
-3.16184e-06
8.839e-07
-3.30855e-06
-1.04278e-06
-3.47977e-06
-2.99521e-06
-3.68752e-06
-4.9802e-06
-3.98213e-06
-7.01284e-06
-4.44608e-06
-9.23886e-06
-5.02804e-06
-1.20953e-05
-5.12736e-06
-1.59941e-05
-3.56075e-06
-1.90442e-05
-1.35204e-05
1.63764e-07
5.0395e-06
-7.0459e-08
9.69627e-06
-4.03935e-07
1.17971e-05
-6.55472e-07
1.26306e-05
-8.11009e-07
1.22938e-05
-9.01686e-07
1.09655e-05
-9.66859e-07
9.06125e-06
-1.03838e-06
6.96635e-06
-1.13278e-06
4.90519e-06
-1.25781e-06
2.94219e-06
-1.41607e-06
1.04216e-06
-1.60967e-06
-8.49183e-07
-1.83702e-06
-2.76785e-06
-2.09574e-06
-4.72148e-06
-2.41299e-06
-6.69559e-06
-2.88013e-06
-8.77172e-06
-3.56275e-06
-1.14127e-05
-4.02715e-06
-1.55297e-05
-3.02687e-06
-2.00445e-05
-1.65473e-05
5.02484e-07
4.53702e-06
7.00724e-07
9.49803e-06
7.44124e-07
1.17537e-05
7.79875e-07
1.25949e-05
8.24836e-07
1.22489e-05
8.53709e-07
1.09366e-05
8.4686e-07
9.06809e-06
7.96105e-07
7.01711e-06
7.02239e-07
4.99906e-06
5.6695e-07
3.07748e-06
3.85001e-07
1.2241e-06
1.50202e-07
-6.14383e-07
-1.38984e-07
-2.47866e-06
-4.89196e-07
-4.37127e-06
-9.03939e-07
-6.28084e-06
-1.42656e-06
-8.2491e-06
-2.20456e-06
-1.06347e-05
-2.95402e-06
-1.47802e-05
-2.46097e-06
-2.05376e-05
-1.90082e-05
7.59791e-07
3.77723e-06
1.35959e-06
8.89823e-06
1.75408e-06
1.13592e-05
2.08515e-06
1.22638e-05
2.3597e-06
1.19743e-05
2.54761e-06
1.07487e-05
2.64082e-06
8.97489e-06
2.65002e-06
7.00791e-06
2.58917e-06
5.05991e-06
2.46458e-06
3.20207e-06
2.26858e-06
1.4201e-06
1.98709e-06
-3.32893e-07
1.62079e-06
-2.11237e-06
1.16481e-06
-3.91528e-06
6.14915e-07
-5.73095e-06
-7.99522e-08
-7.55423e-06
-9.537e-07
-9.76095e-06
-1.91683e-06
-1.38171e-05
-1.92415e-06
-2.05303e-05
-2.09324e-05
8.75552e-07
2.90167e-06
1.81906e-06
7.95473e-06
2.56413e-06
1.06141e-05
3.20822e-06
1.16197e-05
3.75883e-06
1.14237e-05
4.17275e-06
1.03348e-05
4.43419e-06
8.71345e-06
4.55708e-06
6.88501e-06
4.56422e-06
5.05277e-06
4.47055e-06
3.29574e-06
4.27382e-06
1.61682e-06
3.94137e-06
-4.36937e-10
3.494e-06
-1.665e-06
2.9061e-06
-3.32738e-06
2.17897e-06
-5.00382e-06
1.33181e-06
-6.70707e-06
2.74332e-07
-8.70347e-06
-9.53153e-07
-1.25896e-05
-1.42489e-06
-2.00585e-05
-2.23573e-05
8.11433e-07
2.09024e-06
1.96503e-06
6.80113e-06
3.0127e-06
9.56645e-06
3.99077e-06
1.06416e-05
4.87236e-06
1.05421e-05
5.59148e-06
9.61569e-06
6.10903e-06
8.1959e-06
6.42794e-06
6.5661e-06
6.56892e-06
4.9118e-06
6.54973e-06
3.31492e-06
6.3685e-06
1.79806e-06
6.02252e-06
3.45543e-07
5.47872e-06
-1.12119e-06
4.74463e-06
-2.59329e-06
3.81245e-06
-4.07164e-06
2.71126e-06
-5.60588e-06
1.40172e-06
-7.39394e-06
-1.48924e-07
-1.1039e-05
-9.09037e-07
-1.92984e-05
-2.32663e-05
5.81453e-07
1.50879e-06
1.77027e-06
5.61231e-06
3.11545e-06
8.22127e-06
4.47316e-06
9.28394e-06
5.7459e-06
9.26939e-06
6.83508e-06
8.52651e-06
7.67528e-06
7.35571e-06
8.25379e-06
5.98759e-06
8.58284e-06
4.58275e-06
8.67901e-06
3.21876e-06
8.54886e-06
1.9282e-06
8.18949e-06
7.04911e-07
7.55676e-06
-4.88457e-07
6.66812e-06
-1.70466e-06
5.51099e-06
-2.9145e-06
4.1264e-06
-4.22129e-06
2.58849e-06
-5.85603e-06
9.69077e-07
-9.41957e-06
-1.38922e-07
-1.81904e-05
-2.34052e-05
1.54332e-07
1.35445e-06
1.04869e-06
4.71795e-06
2.53352e-06
6.73644e-06
4.26363e-06
7.55383e-06
5.99364e-06
7.53938e-06
7.53578e-06
6.98437e-06
8.78735e-06
6.10413e-06
9.71852e-06
5.05642e-06
1.03243e-05
3.97699e-06
1.06159e-05
2.92712e-06
1.05993e-05
1.94479e-06
1.028e-05
1.02425e-06
9.61151e-06
1.8003e-07
8.61655e-06
-7.09696e-07
7.28483e-06
-1.58278e-06
5.6686e-06
-2.60506e-06
3.9291e-06
-4.11653e-06
2.2507e-06
-7.74117e-06
6.56928e-07
-1.65966e-05
-2.27483e-05
-5.19151e-07
1.87361e-06
2.03726e-07
3.99508e-06
1.7679e-06
5.17227e-06
3.84148e-06
5.48025e-06
6.00723e-06
5.37363e-06
7.97809e-06
5.01351e-06
9.61743e-06
4.46479e-06
1.08836e-05
3.79022e-06
1.17591e-05
3.10148e-06
1.226e-05
2.42626e-06
1.23896e-05
1.81517e-06
1.21677e-05
1.24616e-06
1.16185e-05
7.29221e-07
1.07123e-05
1.96564e-07
9.4537e-06
-3.24224e-07
7.91666e-06
-1.06802e-06
6.28706e-06
-2.48693e-06
4.46681e-06
-5.92092e-06
2.05976e-06
-1.41896e-05
-2.06885e-05
-4.18158e-06
6.05518e-06
-3.64416e-06
3.45766e-06
-1.24381e-06
2.77191e-06
1.56267e-06
2.67377e-06
4.31126e-06
2.62504e-06
6.85489e-06
2.46988e-06
9.07982e-06
2.23985e-06
1.09256e-05
1.94448e-06
1.23735e-05
1.65357e-06
1.34505e-05
1.34927e-06
1.41735e-05
1.09209e-06
1.45875e-05
8.32247e-07
1.46798e-05
6.36891e-07
1.44595e-05
4.16895e-07
1.39226e-05
2.12653e-07
1.3085e-05
-2.30488e-07
1.19347e-05
-1.33659e-06
1.01167e-05
-4.10292e-06
5.63959e-06
-9.71247e-06
-1.50489e-05
6.05518e-06
9.51284e-06
1.22848e-05
1.49585e-05
1.75836e-05
2.00535e-05
2.22933e-05
2.42378e-05
2.58914e-05
2.72406e-05
2.83327e-05
2.9165e-05
2.98019e-05
3.02188e-05
3.04314e-05
3.02009e-05
2.88643e-05
2.47614e-05
1.50489e-05
)
;

boundaryField
{
    movingWall
    {
        type            calculated;
        value           uniform 0;
    }
    fixedWalls
    {
        type            calculated;
        value           uniform 0;
    }
    frontAndBack
    {
        type            empty;
        value           nonuniform List<scalar> 0();
    }
}


// ************************************************************************* //
