/*--------------------------------*- C++ -*----------------------------------*\
| =========                 |                                                 |
| \\      /  F ield         | OpenFOAM: The Open Source CFD Toolbox           |
|  \\    /   O peration     | Version:  2212                                  |
|   \\  /    A nd           | Website:  www.openfoam.com                      |
|    \\/     M anipulation  |                                                 |
\*---------------------------------------------------------------------------*/
FoamFile
{
    version     2.0;
    format      ascii;
    arch        "LSB;label=32;scalar=64";
    class       volVectorField;
    location    "10.7";
    object      U;
}
// * * * * * * * * * * * * * * * * * * * * * * * * * * * * * * * * * * * * * //

dimensions      [0 1 -1 0 0 0 0];

internalField   nonuniform List<vector> 
400
(
(0.00168173 -0.00168386 0)
(0.00483861 -0.0018923 0)
(0.00659114 -0.00120075 0)
(0.00567484 -0.000575137 0)
(0.00157222 0.000183978 0)
(-0.00682919 0.00173939 0)
(-0.0206084 0.00478641 0)
(-0.0395416 0.00873619 0)
(-0.0608121 0.0112928 0)
(-0.0791388 0.0105126 0)
(-0.0898141 0.00677451 0)
(-0.0904644 0.00166889 0)
(-0.0802268 -0.00361664 0)
(-0.0599942 -0.00827513 0)
(-0.0335208 -0.0108473 0)
(-0.00529224 -0.00979535 0)
(0.0167244 -0.004773 0)
(0.0244712 0.00277699 0)
(0.016179 0.00647237 0)
(0.00431658 0.0047172 0)
(0.00172049 -0.00506536 0)
(0.0031627 -0.00403259 0)
(-0.000417021 0.00058771 0)
(-0.0113299 0.00644173 0)
(-0.0314263 0.0140503 0)
(-0.0611508 0.0237744 0)
(-0.0968484 0.0330625 0)
(-0.131462 0.0370935 0)
(-0.158976 0.033518 0)
(-0.176108 0.0234016 0)
(-0.181454 0.00910916 0)
(-0.175083 -0.00699053 0)
(-0.157564 -0.023175 0)
(-0.129653 -0.0369151 0)
(-0.0936156 -0.0445667 0)
(-0.0521945 -0.0418395 0)
(-0.0113997 -0.0263344 0)
(0.0168903 -0.0012787 0)
(0.0178726 0.0162243 0)
(0.0055423 0.0148203 0)
(-0.000239572 -0.00578067 0)
(-0.00538118 0.000801549 0)
(-0.0196097 0.0142995 0)
(-0.044505 0.0312368 0)
(-0.0803434 0.0494472 0)
(-0.122208 0.0643228 0)
(-0.162355 0.0705489 0)
(-0.195279 0.0660307 0)
(-0.218873 0.0521923 0)
(-0.232541 0.0315343 0)
(-0.236297 0.00641592 0)
(-0.230811 -0.0211147 0)
(-0.216396 -0.0488752 0)
(-0.19255 -0.0732296 0)
(-0.159011 -0.0890295 0)
(-0.115745 -0.0892319 0)
(-0.0645642 -0.06703 0)
(-0.0138211 -0.0226642 0)
(0.00948171 0.0179193 0)
(0.00415547 0.0235807 0)
(-0.00347203 0.000453 0)
(-0.0175154 0.0172406 0)
(-0.043518 0.0415023 0)
(-0.0796861 0.0681979 0)
(-0.122965 0.0911652 0)
(-0.165861 0.103853 0)
(-0.201935 0.102908 0)
(-0.22926 0.089675 0)
(-0.2481 0.0673282 0)
(-0.259055 0.0385803 0)
(-0.262963 0.00531666 0)
(-0.26063 -0.0311193 0)
(-0.251996 -0.0684587 0)
(-0.236016 -0.103748 0)
(-0.210703 -0.131496 0)
(-0.173354 -0.142896 0)
(-0.121407 -0.125768 0)
(-0.0568459 -0.0708538 0)
(-0.000986807 0.00356721 0)
(0.00474231 0.0282414 0)
(-0.00666309 0.0147831 0)
(-0.0287316 0.0441129 0)
(-0.0632942 0.0770996 0)
(-0.104469 0.108928 0)
(-0.147293 0.131219 0)
(-0.184595 0.138207 0)
(-0.212936 0.129512 0)
(-0.232722 0.108753 0)
(-0.24524 0.0798014 0)
(-0.252217 0.0454489 0)
(-0.255336 0.00723961 0)
(-0.255518 -0.0340006 0)
(-0.252538 -0.0770881 0)
(-0.245855 -0.120694 0)
(-0.232657 -0.160831 0)
(-0.208333 -0.189041 0)
(-0.166829 -0.18999 0)
(-0.103454 -0.142884 0)
(-0.0221828 -0.0388535 0)
(0.0073822 0.0271023 0)
(-0.00851159 0.0348753 0)
(-0.0351806 0.0766446 0)
(-0.0730999 0.114963 0)
(-0.113276 0.147717 0)
(-0.150543 0.166051 0)
(-0.179409 0.165987 0)
(-0.198937 0.149775 0)
(-0.210685 0.122514 0)
(-0.216636 0.0885512 0)
(-0.219268 0.0508728 0)
(-0.220537 0.0109548 0)
(-0.221438 -0.0307607 0)
(-0.222169 -0.0747262 0)
(-0.222841 -0.121299 0)
(-0.221267 -0.169246 0)
(-0.212363 -0.213079 0)
(-0.188042 -0.238607 0)
(-0.139699 -0.218555 0)
(-0.0628536 -0.118948 0)
(0.00584958 0.0142042 0)
(-0.00829397 0.0570102 0)
(-0.0353466 0.110021 0)
(-0.0718465 0.150512 0)
(-0.107092 0.181208 0)
(-0.136731 0.193903 0)
(-0.15714 0.186508 0)
(-0.169053 0.163343 0)
(-0.174594 0.130556 0)
(-0.176169 0.0929087 0)
(-0.176269 0.0534129 0)
(-0.176383 0.0133141 0)
(-0.177184 -0.0273138 0)
(-0.179215 -0.0695837 0)
(-0.183023 -0.114738 0)
(-0.187969 -0.163872 0)
(-0.190438 -0.215842 0)
(-0.182548 -0.261693 0)
(-0.154296 -0.275209 0)
(-0.0994121 -0.20593 0)
(-0.00890854 -0.014625 0)
(-0.00613684 0.0776093 0)
(-0.0297982 0.140578 0)
(-0.0614386 0.181254 0)
(-0.089914 0.208373 0)
(-0.111928 0.214964 0)
(-0.125467 0.200637 0)
(-0.13216 0.171403 0)
(-0.134314 0.134238 0)
(-0.134378 0.094121 0)
(-0.13428 0.0537544 0)
(-0.134687 0.0138633 0)
(-0.13578 -0.0258925 0)
(-0.138012 -0.0664914 0)
(-0.142074 -0.109112 0)
(-0.148586 -0.155701 0)
(-0.156248 -0.208617 0)
(-0.159102 -0.265941 0)
(-0.146771 -0.308175 0)
(-0.11227 -0.277244 0)
(-0.0309699 -0.0753455 0)
(-0.00273091 0.0936319 0)
(-0.0204239 0.165673 0)
(-0.0451642 0.20565 0)
(-0.0663641 0.228646 0)
(-0.0816363 0.229608 0)
(-0.0901298 0.209621 0)
(-0.0937644 0.175868 0)
(-0.0946787 0.135829 0)
(-0.0949581 0.0944808 0)
(-0.095755 0.0540361 0)
(-0.0971057 0.0145942 0)
(-0.0989158 -0.0245888 0)
(-0.101352 -0.0642427 0)
(-0.104918 -0.105017 0)
(-0.110762 -0.1485 0)
(-0.119621 -0.198621 0)
(-0.128372 -0.259848 0)
(-0.126543 -0.323509 0)
(-0.107494 -0.334812 0)
(-0.037355 -0.163464 0)
(0.00121933 0.102781 0)
(-0.00894639 0.183519 0)
(-0.0256528 0.223208 0)
(-0.0396552 0.242833 0)
(-0.0491372 0.239599 0)
(-0.0540121 0.215625 0)
(-0.0559834 0.178868 0)
(-0.0566979 0.13717 0)
(-0.0576601 0.0954129 0)
(-0.0594031 0.0552763 0)
(-0.0616966 0.0163106 0)
(-0.0643972 -0.0224952 0)
(-0.0674959 -0.0617473 0)
(-0.0711707 -0.101644 0)
(-0.0763539 -0.142853 0)
(-0.084615 -0.188997 0)
(-0.0960812 -0.248417 0)
(-0.100663 -0.324377 0)
(-0.0951824 -0.37228 0)
(-0.0309263 -0.24262 0)
(0.00511918 0.103948 0)
(0.00295743 0.193121 0)
(-0.00539176 0.233705 0)
(-0.0125103 0.250868 0)
(-0.0169023 0.244784 0)
(-0.0187902 0.218566 0)
(-0.0194794 0.180504 0)
(-0.0200084 0.138427 0)
(-0.0213073 0.0969682 0)
(-0.0235436 0.0574273 0)
(-0.0264327 0.0190829 0)
(-0.0299164 -0.0191699 0)
(-0.0340109 -0.0579855 0)
(-0.0386547 -0.0974145 0)
(-0.0443931 -0.137374 0)
(-0.0524527 -0.180246 0)
(-0.0657689 -0.235718 0)
(-0.0742265 -0.318157 0)
(-0.0812033 -0.396786 0)
(-0.0229435 -0.307181 0)
(0.0084591 0.0974731 0)
(0.014223 0.194115 0)
(0.014106 0.237229 0)
(0.0137116 0.253649 0)
(0.0143345 0.246571 0)
(0.0155316 0.219863 0)
(0.0163914 0.181813 0)
(0.0164452 0.140098 0)
(0.0153075 0.0991561 0)
(0.0130305 0.0602274 0)
(0.0098627 0.0226272 0)
(0.00575432 -0.0147537 0)
(0.000562281 -0.0527 0)
(-0.00556372 -0.0913074 0)
(-0.013032 -0.130204 0)
(-0.0219792 -0.170387 0)
(-0.0377198 -0.220764 0)
(-0.0487298 -0.304518 0)
(-0.0679047 -0.40853 0)
(-0.0144592 -0.360064 0)
(0.010331 0.0844923 0)
(0.0234228 0.186518 0)
(0.0310878 0.233352 0)
(0.0370185 0.250194 0)
(0.0426814 0.243356 0)
(0.0476373 0.217571 0)
(0.0510755 0.180808 0)
(0.0527522 0.1404 0)
(0.0526215 0.100637 0)
(0.050893 0.0628251 0)
(0.0477836 0.0264578 0)
(0.0431755 -0.00952161 0)
(0.0369013 -0.0460042 0)
(0.029085 -0.0831444 0)
(0.0189286 -0.120574 0)
(0.00760169 -0.158518 0)
(-0.0118142 -0.204477 0)
(-0.0242364 -0.286521 0)
(-0.0558427 -0.411036 0)
(-0.00613713 -0.40191 0)
(0.00987978 0.0672388 0)
(0.0290351 0.170707 0)
(0.0443636 0.22226 0)
(0.0569084 0.241359 0)
(0.0682045 0.236433 0)
(0.077894 0.213071 0)
(0.0851176 0.178777 0)
(0.0895746 0.140435 0)
(0.0913414 0.102272 0)
(0.0907176 0.0658331 0)
(0.088033 0.0309803 0)
(0.0829838 -0.00330293 0)
(0.0754684 -0.0375503 0)
(0.0657748 -0.0723365 0)
(0.0525207 -0.107466 0)
(0.0375848 -0.142817 0)
(0.0131398 -0.184303 0)
(8.62785e-05 -0.263281 0)
(-0.0447946 -0.406735 0)
(0.00276656 -0.436286 0)
(0.00693102 0.0493982 0)
(0.0293703 0.148981 0)
(0.051123 0.203667 0)
(0.0700055 0.224589 0)
(0.0874854 0.221733 0)
(0.103184 0.201575 0)
(0.115857 0.17098 0)
(0.124826 0.136088 0)
(0.13 0.100887 0)
(0.131623 0.067056 0)
(0.12996 0.0348443 0)
(0.125036 0.0034282 0)
(0.116404 -0.0274726 0)
(0.10467 -0.0587156 0)
(0.0875726 -0.090343 0)
(0.0683788 -0.122964 0)
(0.0383095 -0.160884 0)
(0.0238677 -0.23718 0)
(-0.0344358 -0.39898 0)
(0.0134765 -0.464442 0)
(0.00238755 0.0346258 0)
(0.0236458 0.123908 0)
(0.0509688 0.179969 0)
(0.0767064 0.202972 0)
(0.101377 0.202663 0)
(0.124266 0.186262 0)
(0.143725 0.160204 0)
(0.158537 0.129771 0)
(0.168287 0.0985762 0)
(0.17318 0.0683071 0)
(0.173156 0.0395614 0)
(0.168928 0.0119337 0)
(0.15909 -0.0149179 0)
(0.145354 -0.041727 0)
(0.124046 -0.0687733 0)
(0.1005 -0.0975776 0)
(0.0646388 -0.132733 0)
(0.0470157 -0.207474 0)
(-0.0226999 -0.387094 0)
(0.0285351 -0.485565 0)
(-0.00342641 0.0286115 0)
(0.0100753 0.101504 0)
(0.0371205 0.148709 0)
(0.0689919 0.16948 0)
(0.101893 0.170702 0)
(0.133619 0.158412 0)
(0.161623 0.137975 0)
(0.184174 0.11357 0)
(0.200228 0.0882798 0)
(0.210156 0.0636348 0)
(0.213082 0.0403804 0)
(0.210829 0.0183994 0)
(0.200563 -0.00268317 0)
(0.185928 -0.0233235 0)
(0.161107 -0.0439924 0)
(0.134483 -0.067756 0)
(0.0929433 -0.101708 0)
(0.0698838 -0.180025 0)
(-0.00436336 -0.370058 0)
(0.0521633 -0.491644 0)
(-0.014013 0.0185153 0)
(-0.00751617 0.0881756 0)
(0.0192238 0.124199 0)
(0.0564634 0.137329 0)
(0.0976246 0.136923 0)
(0.138015 0.127741 0)
(0.174275 0.113084 0)
(0.204127 0.0953034 0)
(0.226027 0.0768285 0)
(0.241124 0.058677 0)
(0.247161 0.0418016 0)
(0.248077 0.0261047 0)
(0.238736 0.0117383 0)
(0.226917 -0.002055 0)
(0.201912 -0.016097 0)
(0.177921 -0.035034 0)
(0.133566 -0.0678123 0)
(0.107846 -0.146007 0)
(0.0374751 -0.32612 0)
(0.0923686 -0.455871 0)
(-0.10602 0.0824166 0)
(-0.0777608 0.0689897 0)
(-0.0485677 0.0733713 0)
(0.00378415 0.0778929 0)
(0.0573041 0.078228 0)
(0.110041 0.0739643 0)
(0.157215 0.0666289 0)
(0.199583 0.0572235 0)
(0.231698 0.0475465 0)
(0.259853 0.0378887 0)
(0.275582 0.02922 0)
(0.290737 0.0212325 0)
(0.291088 0.0144737 0)
(0.295197 0.00808945 0)
(0.27889 0.00112056 0)
(0.271671 -0.0100169 0)
(0.232355 -0.0355713 0)
(0.218146 -0.0954205 0)
(0.150209 -0.229723 0)
(0.170672 -0.341455 0)
(0.129969 0.103744 0)
(0.158319 0.0752271 0)
(0.212163 0.0532267 0)
(0.270671 0.041622 0)
(0.323248 0.0359126 0)
(0.375692 0.0319485 0)
(0.42029 0.0289165 0)
(0.465611 0.025581 0)
(0.498709 0.0229029 0)
(0.53396 0.0197104 0)
(0.553399 0.0175474 0)
(0.57921 0.0146094 0)
(0.585347 0.0131644 0)
(0.603685 0.0103453 0)
(0.595103 0.00938284 0)
(0.603602 0.0049992 0)
(0.567792 8.87483e-05 0)
(0.547612 -0.0183162 0)
(0.435689 -0.0504144 0)
(0.336753 -0.101386 0)
)
;

boundaryField
{
    movingWall
    {
        type            fixedValue;
        value           uniform (1 0 0);
    }
    fixedWalls
    {
        type            noSlip;
    }
    frontAndBack
    {
        type            empty;
    }
}


// ************************************************************************* //
