/*--------------------------------*- C++ -*----------------------------------*\
| =========                 |                                                 |
| \\      /  F ield         | OpenFOAM: The Open Source CFD Toolbox           |
|  \\    /   O peration     | Version:  2212                                  |
|   \\  /    A nd           | Website:  www.openfoam.com                      |
|    \\/     M anipulation  |                                                 |
\*---------------------------------------------------------------------------*/
FoamFile
{
    version     2.0;
    format      ascii;
    arch        "LSB;label=32;scalar=64";
    class       volScalarField;
    location    "6";
    object      p;
}
// * * * * * * * * * * * * * * * * * * * * * * * * * * * * * * * * * * * * * //

dimensions      [0 2 -2 0 0 0 0];

internalField   nonuniform List<scalar> 
400
(
-1.49655e-07
-0.00015092
-0.000534409
-0.00107092
-0.00173086
-0.00249131
-0.00318157
-0.00359365
-0.00356129
-0.00293036
-0.00154585
0.000620414
0.0032495
0.00551479
0.00653789
0.00593241
0.00401634
0.00216635
0.00112763
0.00105811
0.000115908
-5.82726e-05
-0.000376694
-0.000763425
-0.00124288
-0.0018862
-0.00270306
-0.00353895
-0.00407441
-0.00393277
-0.00284184
-0.000821951
0.00169109
0.00396333
0.00513037
0.00475379
0.0031188
0.00139212
0.000610633
0.000700896
0.000535498
0.000264544
-7.72103e-05
-0.000559006
-0.00134566
-0.00257706
-0.00421268
-0.00597399
-0.00739007
-0.00793041
-0.00725172
-0.00545138
-0.00288292
-0.000186559
0.00180136
0.00244071
0.00172555
0.000520495
-0.000377545
-0.000375225
0.00114974
0.000739652
0.000191271
-0.000773837
-0.00244718
-0.00492915
-0.00798038
-0.0110993
-0.013677
-0.0151477
-0.0151777
-0.0138128
-0.0112698
-0.00800859
-0.00473385
-0.00219192
-0.000852287
-0.000687787
-0.00127002
-0.00189983
0.00157881
0.000970381
-2.40552e-05
-0.0019213
-0.00499735
-0.00916181
-0.0138851
-0.0184409
-0.0221689
-0.0246002
-0.0254743
-0.0246709
-0.0223168
-0.0187034
-0.0142713
-0.00962821
-0.00556928
-0.00292931
-0.00217521
-0.00399829
0.0012873
0.000440764
-0.00119764
-0.0042973
-0.00898689
-0.0148486
-0.0210259
-0.0266542
-0.0311184
-0.0340978
-0.0354616
-0.0351081
-0.0331224
-0.0296539
-0.0248457
-0.0189185
-0.0124731
-0.00692454
-0.00438122
-0.00650217
-5.40415e-05
-0.00115076
-0.00349651
-0.00778276
-0.0139027
-0.0210661
-0.0281688
-0.0343224
-0.0390281
-0.0421208
-0.0436041
-0.043497
-0.0418673
-0.0387861
-0.0342334
-0.0280958
-0.0204932
-0.0126707
-0.00783158
-0.00772807
-0.00245335
-0.00374187
-0.00669002
-0.0118902
-0.018997
-0.0269165
-0.0344158
-0.0406691
-0.045322
-0.0483346
-0.0497908
-0.0497837
-0.0483923
-0.0456659
-0.0415593
-0.0358443
-0.0282632
-0.019327
-0.0117937
-0.00796179
-0.00553554
-0.00690947
-0.010248
-0.015989
-0.0236023
-0.0318079
-0.0393435
-0.0454799
-0.0499823
-0.0528859
-0.0543065
-0.0543475
-0.0530835
-0.0505747
-0.0468343
-0.0417091
-0.0347885
-0.02589
-0.016671
-0.00997017
-0.00872599
-0.0100742
-0.0135749
-0.0195004
-0.0272195
-0.0353921
-0.0427882
-0.048758
-0.053133
-0.0559721
-0.057386
-0.0574576
-0.05625
-0.0538368
-0.0503028
-0.0456405
-0.0395407
-0.0314541
-0.0222715
-0.014304
-0.0114916
-0.0127413
-0.0161911
-0.0220063
-0.0295328
-0.0374849
-0.0446922
-0.0505355
-0.0548527
-0.0576839
-0.0591153
-0.0592069
-0.058009
-0.0556001
-0.0521259
-0.047722
-0.0423296
-0.0353055
-0.0271401
-0.0191334
-0.013534
-0.0145993
-0.0178249
-0.0232649
-0.0303543
-0.0379565
-0.0449806
-0.0507825
-0.0551351
-0.058026
-0.0595025
-0.0596049
-0.0583745
-0.055891
-0.0523524
-0.0480069
-0.0431057
-0.0369797
-0.0299729
-0.0223675
-0.0148212
-0.0155482
-0.0183215
-0.0231617
-0.0296201
-0.0367771
-0.0436328
-0.0494789
-0.0539672
-0.0569932
-0.0585513
-0.0586586
-0.0573513
-0.0547317
-0.0510225
-0.046534
-0.0418742
-0.036233
-0.0301739
-0.0228511
-0.0154521
-0.0157043
-0.0177508
-0.0217042
-0.0273256
-0.0339413
-0.0406319
-0.0465938
-0.0513208
-0.0545768
-0.0562803
-0.0564218
-0.0550125
-0.0521865
-0.0482097
-0.0434785
-0.0386587
-0.0330927
-0.0280611
-0.0202485
-0.0155599
-0.0152834
-0.0163178
-0.0190559
-0.0236032
-0.0295613
-0.0360728
-0.0422106
-0.0472783
-0.0508717
-0.0528026
-0.0530069
-0.0515267
-0.0484501
-0.0441159
-0.0389766
-0.0337359
-0.0280482
-0.0242141
-0.0143764
-0.0152644
-0.0145388
-0.0142478
-0.0154066
-0.0186526
-0.0238434
-0.0301569
-0.0365156
-0.0420158
-0.0460615
-0.0483402
-0.0487184
-0.0472175
-0.0439084
-0.0391672
-0.0334712
-0.0276246
-0.0216342
-0.0180684
-0.00385087
-0.0146523
-0.0136105
-0.0117016
-0.0110752
-0.0129404
-0.0173522
-0.0234854
-0.0300986
-0.0360994
-0.0407003
-0.0434579
-0.0441415
-0.0427421
-0.0392911
-0.034131
-0.02767
-0.0206947
-0.0133122
-0.00683502
0.0160096
-0.0145778
-0.0126535
-0.00865056
-0.00624163
-0.00691443
-0.010739
-0.0167928
-0.023693
-0.0302301
-0.0354534
-0.0388079
-0.0399395
-0.0387932
-0.0353847
-0.0298624
-0.0222778
-0.0129095
-0.000752039
0.016619
0.0570009
-0.0117935
-0.0118318
-0.00573646
-0.00179317
-0.00178283
-0.00541347
-0.0115671
-0.0187857
-0.0258249
-0.0316191
-0.0355831
-0.0372811
-0.0366134
-0.0333033
-0.0272023
-0.0175554
-0.00319822
0.0204125
0.0606188
0.129752
-0.0295138
-0.0106336
-0.00062403
0.00305759
0.0024247
-0.00157204
-0.00799826
-0.0155314
-0.0229326
-0.029112
-0.0334586
-0.0355121
-0.0351333
-0.0319064
-0.0252054
-0.0128708
0.00937669
0.0511002
0.122802
0.226014
)
;

boundaryField
{
    movingWall
    {
        type            zeroGradient;
    }
    fixedWalls
    {
        type            zeroGradient;
    }
    frontAndBack
    {
        type            empty;
    }
}


// ************************************************************************* //
