/*--------------------------------*- C++ -*----------------------------------*\
| =========                 |                                                 |
| \\      /  F ield         | OpenFOAM: The Open Source CFD Toolbox           |
|  \\    /   O peration     | Version:  2212                                  |
|   \\  /    A nd           | Website:  www.openfoam.com                      |
|    \\/     M anipulation  |                                                 |
\*---------------------------------------------------------------------------*/
FoamFile
{
    version     2.0;
    format      ascii;
    arch        "LSB;label=32;scalar=64";
    class       surfaceScalarField;
    location    "6";
    object      phi;
}
// * * * * * * * * * * * * * * * * * * * * * * * * * * * * * * * * * * * * * //

dimensions      [0 3 -1 0 0 0 0];

oriented        oriented;

internalField   nonuniform List<scalar> 
760
(
1.55801e-07
-1.55788e-07
2.92971e-07
-1.3717e-07
3.09163e-07
-1.61925e-08
1.8286e-07
1.26303e-07
-1.20924e-07
3.03784e-07
-6.66011e-07
5.45087e-07
-1.48443e-06
8.18414e-07
-2.48894e-06
1.00451e-06
-3.47761e-06
9.88673e-07
-4.21738e-06
7.39768e-07
-4.54136e-06
3.23985e-07
-4.35209e-06
-1.89276e-07
-3.59363e-06
-7.58457e-07
-2.38037e-06
-1.21326e-06
-9.42616e-07
-1.43775e-06
3.44583e-07
-1.2872e-06
1.0873e-06
-7.42721e-07
1.03161e-06
5.56885e-08
4.60505e-07
5.7111e-07
4.60505e-07
1.24516e-07
-2.80304e-07
7.36294e-08
-8.62841e-08
-2.97943e-07
3.55379e-07
-1.07917e-06
9.07524e-07
-2.31487e-06
1.53949e-06
-3.92454e-06
2.15475e-06
-5.65768e-06
2.55155e-06
-7.20117e-06
2.548e-06
-8.33049e-06
2.118e-06
-8.93591e-06
1.34518e-06
-8.97046e-06
3.58536e-07
-8.41159e-06
-7.48146e-07
-7.29059e-06
-1.87945e-06
-5.6408e-06
-2.86306e-06
-3.6063e-06
-3.47224e-06
-1.49197e-06
-3.40154e-06
1.76346e-07
-2.41104e-06
8.57253e-07
-6.2522e-07
5.25048e-07
9.03313e-07
9.85553e-07
-1.28024e-07
-1.5228e-07
-6.34335e-07
4.20026e-07
-1.62454e-06
1.34558e-06
-3.13943e-06
2.42241e-06
-5.05325e-06
3.45332e-06
-7.0669e-06
4.1684e-06
-8.86523e-06
4.34989e-06
-1.02682e-05
3.95101e-06
-1.12243e-05
3.07402e-06
-1.17256e-05
1.84648e-06
-1.17202e-05
3.53125e-07
-1.12621e-05
-1.20618e-06
-1.03308e-05
-2.81075e-06
-8.87204e-06
-4.32185e-06
-6.86593e-06
-5.47835e-06
-4.40172e-06
-5.86574e-06
-1.87893e-06
-4.93382e-06
-8.72921e-08
-2.41686e-06
2.94345e-07
5.21675e-07
1.2799e-06
-5.00376e-07
3.48095e-07
-1.55906e-06
1.47871e-06
-3.11688e-06
2.9034e-06
-5.07642e-06
4.38195e-06
-7.1778e-06
5.5547e-06
-9.11361e-06
6.1042e-06
-1.06817e-05
5.91802e-06
-1.18396e-05
5.1089e-06
-1.26153e-05
3.84972e-06
-1.30435e-05
2.2747e-06
-1.3109e-05
4.18533e-07
-1.28702e-05
-1.44492e-06
-1.22887e-05
-3.39223e-06
-1.12627e-05
-5.34791e-06
-9.66119e-06
-7.07984e-06
-7.35958e-06
-8.16735e-06
-4.39637e-06
-7.89704e-06
-1.37801e-06
-5.43522e-06
1.20369e-07
-9.76705e-07
1.40027e-06
-8.61118e-07
1.20921e-06
-2.35923e-06
2.97683e-06
-4.22801e-06
4.77217e-06
-6.27277e-06
6.42671e-06
-8.21276e-06
7.4947e-06
-9.82549e-06
7.71694e-06
-1.10342e-05
7.12675e-06
-1.18654e-05
5.94012e-06
-1.2381e-05
4.36528e-06
-1.26536e-05
2.54735e-06
-1.27742e-05
5.39076e-07
-1.27293e-05
-1.4898e-06
-1.251e-05
-3.6115e-06
-1.20373e-05
-5.82065e-06
-1.11247e-05
-7.9924e-06
-9.48438e-06
-9.80769e-06
-6.81696e-06
-1.05645e-05
-3.22105e-06
-9.03112e-06
-2.61455e-07
-3.9363e-06
1.13881e-06
-1.08561e-06
2.29483e-06
-2.78096e-06
4.67218e-06
-4.67223e-06
6.66344e-06
-6.52779e-06
8.28227e-06
-8.12359e-06
9.09049e-06
-9.32861e-06
8.92196e-06
-1.01387e-05
7.93684e-06
-1.06189e-05
6.42036e-06
-1.08596e-05
4.60597e-06
-1.09607e-05
2.64838e-06
-1.10435e-05
6.21932e-07
-1.10948e-05
-1.43852e-06
-1.11305e-05
-3.5758e-06
-1.11215e-05
-5.82966e-06
-1.09141e-05
-8.19978e-06
-1.01812e-05
-1.05406e-05
-8.42853e-06
-1.23171e-05
-5.24051e-06
-1.22191e-05
-1.15804e-06
-8.01877e-06
-1.92321e-08
-1.10935e-06
3.40417e-06
-2.75507e-06
6.3179e-06
-4.45063e-06
8.359e-06
-5.9844e-06
9.81604e-06
-7.1964e-06
1.03025e-05
-8.02418e-06
9.74974e-06
-8.50534e-06
8.418e-06
-8.72682e-06
6.64184e-06
-8.79223e-06
4.67139e-06
-8.79866e-06
2.6548e-06
-8.82861e-06
6.51887e-07
-8.90056e-06
-1.36657e-06
-9.03438e-06
-3.44199e-06
-9.24151e-06
-5.62253e-06
-9.46545e-06
-7.97584e-06
-9.47483e-06
-1.05312e-05
-8.75069e-06
-1.30413e-05
-6.53518e-06
-1.44346e-05
-2.4226e-06
-1.21314e-05
-2.44183e-06
-9.34752e-07
4.33893e-06
-2.34484e-06
7.72798e-06
-3.73063e-06
9.7448e-06
-4.90868e-06
1.09941e-05
-5.77803e-06
1.11718e-05
-6.32171e-06
1.02934e-05
-6.59674e-06
8.69303e-06
-6.69413e-06
6.73923e-06
-6.70999e-06
4.68725e-06
-6.7174e-06
2.66222e-06
-6.75216e-06
6.86645e-07
-6.83126e-06
-1.28747e-06
-6.97572e-06
-3.29753e-06
-7.2161e-06
-5.38215e-06
-7.56959e-06
-7.62236e-06
-7.94538e-06
-1.01554e-05
-7.93369e-06
-1.3053e-05
-6.71667e-06
-1.56517e-05
-3.58594e-06
-1.52621e-05
-6.02777e-06
-6.24551e-07
4.96348e-06
-1.68634e-06
8.78977e-06
-2.71884e-06
1.07773e-05
-3.55739e-06
1.18326e-05
-4.14642e-06
1.17609e-05
-4.49596e-06
1.0643e-05
-4.66483e-06
8.8619e-06
-4.73143e-06
6.80582e-06
-4.76812e-06
4.72393e-06
-4.81846e-06
2.71257e-06
-4.89254e-06
7.60718e-07
-4.9967e-06
-1.18331e-06
-5.14082e-06
-3.1534e-06
-5.35351e-06
-5.16946e-06
-5.68985e-06
-7.28602e-06
-6.16346e-06
-9.68183e-06
-6.5565e-06
-1.26599e-05
-6.12808e-06
-1.60801e-05
-3.92373e-06
-1.74664e-05
-9.9515e-06
-2.32436e-07
5.19591e-06
-8.9286e-07
9.45019e-06
-1.56419e-06
1.14486e-05
-2.09355e-06
1.2362e-05
-2.45319e-06
1.21205e-05
-2.66734e-06
1.08571e-05
-2.78416e-06
8.97872e-06
-2.85692e-06
6.87859e-06
-2.93029e-06
4.7973e-06
-3.02628e-06
2.80856e-06
-3.14766e-06
8.82098e-07
-3.29404e-06
-1.03693e-06
-3.46556e-06
-2.98189e-06
-3.67441e-06
-4.9606e-06
-3.97125e-06
-6.98918e-06
-4.4383e-06
-9.21479e-06
-5.0232e-06
-1.2075e-05
-5.12416e-06
-1.59791e-05
-3.55866e-06
-1.90319e-05
-1.35102e-05
1.63703e-07
5.03221e-06
-6.98695e-08
9.68377e-06
-4.02681e-07
1.17814e-05
-6.53571e-07
1.26129e-05
-8.08405e-07
1.22753e-05
-8.98284e-07
1.0947e-05
-9.62616e-07
9.04305e-06
-1.03331e-06
6.94928e-06
-1.12697e-06
4.89096e-06
-1.25136e-06
2.93295e-06
-1.409e-06
1.03974e-06
-1.60204e-06
-8.43882e-07
-1.82903e-06
-2.7549e-06
-2.08779e-06
-4.70184e-06
-2.4058e-06
-6.67117e-06
-2.8749e-06
-8.74569e-06
-3.55987e-06
-1.139e-05
-4.0256e-06
-1.55134e-05
-3.02589e-06
-2.00316e-05
-1.6536e-05
5.01561e-07
4.53065e-06
6.99602e-07
9.48573e-06
7.42952e-07
1.17381e-05
7.78719e-07
1.25771e-05
8.23768e-07
1.22303e-05
8.52727e-07
1.0918e-05
8.45874e-07
9.04991e-06
7.94981e-07
7.00017e-06
7.01027e-07
4.98491e-06
5.65791e-07
3.06819e-06
3.84178e-07
1.22135e-06
1.5e-07
-6.09703e-07
-1.38409e-07
-2.4665e-06
-4.87715e-07
-4.35254e-06
-9.01863e-07
-6.25702e-06
-1.42486e-06
-8.2227e-06
-2.20409e-06
-1.06108e-05
-2.95428e-06
-1.47632e-05
-2.46112e-06
-2.05248e-05
-1.89972e-05
7.58013e-07
3.77264e-06
1.35675e-06
8.88699e-06
1.75047e-06
1.13444e-05
2.08086e-06
1.22467e-05
2.35484e-06
1.19563e-05
2.54215e-06
1.07307e-05
2.63459e-06
8.95747e-06
2.64288e-06
6.99188e-06
2.58114e-06
5.04665e-06
2.45605e-06
3.19328e-06
2.26017e-06
1.41723e-06
1.97946e-06
-3.28993e-07
1.61438e-06
-2.10142e-06
1.15991e-06
-3.89807e-06
6.1162e-07
-5.70873e-06
-8.20224e-08
-7.52905e-06
-9.55836e-07
-9.737e-06
-1.91898e-06
-1.38001e-05
-1.92515e-06
-2.05186e-05
-2.09223e-05
8.73245e-07
2.89939e-06
1.8148e-06
7.94543e-06
2.55838e-06
1.06008e-05
3.20114e-06
1.1604e-05
3.75049e-06
1.1407e-05
4.16313e-06
1.03181e-05
4.42314e-06
8.69745e-06
4.54452e-06
6.87051e-06
4.55026e-06
5.04091e-06
4.45564e-06
3.28789e-06
4.25872e-06
1.61415e-06
3.92711e-06
2.61737e-09
3.48119e-06
-1.65549e-06
2.89535e-06
-3.31224e-06
2.17066e-06
-4.98403e-06
1.32579e-06
-6.68418e-06
2.70007e-07
-8.68122e-06
-9.56638e-07
-1.25734e-05
-1.42652e-06
-2.00487e-05
-2.23488e-05
8.09123e-07
2.09027e-06
1.95999e-06
6.79456e-06
3.00547e-06
9.55531e-06
3.98158e-06
1.06279e-05
4.86128e-06
1.05273e-05
5.57853e-06
9.60083e-06
6.09414e-06
8.18184e-06
6.4111e-06
6.55356e-06
6.55032e-06
4.90169e-06
6.52991e-06
3.30829e-06
6.34831e-06
1.79576e-06
6.00292e-06
3.48008e-07
5.4607e-06
-1.11327e-06
4.729e-06
-2.58055e-06
3.79985e-06
-4.05488e-06
2.70207e-06
-5.5864e-06
1.39554e-06
-7.37469e-06
-1.52099e-07
-1.10258e-05
-9.11392e-07
-1.92894e-05
-2.32602e-05
5.79708e-07
1.51056e-06
1.76546e-06
5.60881e-06
3.1078e-06
8.21296e-06
4.46278e-06
9.27289e-06
5.73293e-06
9.25712e-06
6.81961e-06
8.51415e-06
7.6574e-06
7.34405e-06
8.23362e-06
5.97734e-06
8.5607e-06
4.57461e-06
8.6555e-06
3.2135e-06
8.52484e-06
1.92642e-06
8.16596e-06
7.06885e-07
7.53488e-06
-4.82194e-07
6.64886e-06
-1.69453e-06
5.49519e-06
-2.9012e-06
4.11481e-06
-4.20602e-06
2.5806e-06
-5.84048e-06
9.63367e-07
-9.40857e-06
-1.41527e-07
-1.81845e-05
-2.34018e-05
1.53348e-07
1.35721e-06
1.04488e-06
4.71728e-06
2.52661e-06
6.73123e-06
4.25348e-06
7.54602e-06
5.98031e-06
7.53029e-06
7.51943e-06
6.97502e-06
8.76817e-06
6.09531e-06
9.69676e-06
5.04875e-06
1.03003e-05
3.97104e-06
1.05904e-05
2.92337e-06
1.05731e-05
1.94373e-06
1.0254e-05
1.02597e-06
9.58757e-06
1.84284e-07
8.59513e-06
-7.02081e-07
7.26717e-06
-1.57325e-06
5.6555e-06
-2.59435e-06
3.92072e-06
-4.1057e-06
2.24585e-06
-7.73371e-06
6.55084e-07
-1.65938e-05
-2.27467e-05
-5.18353e-07
1.87557e-06
2.02491e-07
3.99644e-06
1.76331e-06
5.17041e-06
3.83302e-06
5.47632e-06
5.99479e-06
5.36851e-06
7.96194e-06
5.00788e-06
9.59788e-06
4.45937e-06
1.08611e-05
3.78549e-06
1.17342e-05
3.09793e-06
1.22335e-05
2.42409e-06
1.23626e-05
1.81462e-06
1.21414e-05
1.24717e-06
1.15937e-05
7.32056e-07
1.06904e-05
2.01229e-07
9.43608e-06
-3.18963e-07
7.90369e-06
-1.06196e-06
6.27901e-06
-2.48102e-06
4.46265e-06
-5.91734e-06
2.05805e-06
-1.41892e-05
-2.06886e-05
-4.18064e-06
6.05621e-06
-3.64334e-06
3.45913e-06
-1.24507e-06
2.77214e-06
1.55829e-06
2.67296e-06
4.30336e-06
2.62344e-06
6.84343e-06
2.46782e-06
9.06508e-06
2.23772e-06
1.0908e-05
1.94255e-06
1.23539e-05
1.6521e-06
1.34296e-05
1.34834e-06
1.41524e-05
1.09185e-06
1.45669e-05
8.32667e-07
1.46609e-05
6.38039e-07
1.44436e-05
4.1847e-07
1.39101e-05
2.14539e-07
1.30761e-05
-2.27911e-07
1.19298e-05
-1.33475e-06
1.01149e-05
-4.10247e-06
5.63889e-06
-9.71311e-06
-1.50497e-05
6.05621e-06
9.51534e-06
1.22875e-05
1.49604e-05
1.75839e-05
2.00517e-05
2.22894e-05
2.4232e-05
2.58841e-05
2.72324e-05
2.83243e-05
2.91569e-05
2.9795e-05
3.02134e-05
3.0428e-05
3.02001e-05
2.88653e-05
2.47628e-05
1.50497e-05
)
;

boundaryField
{
    movingWall
    {
        type            calculated;
        value           uniform 0;
    }
    fixedWalls
    {
        type            calculated;
        value           uniform 0;
    }
    frontAndBack
    {
        type            empty;
        value           nonuniform List<scalar> 0();
    }
}


// ************************************************************************* //
