/*--------------------------------*- C++ -*----------------------------------*\
| =========                 |                                                 |
| \\      /  F ield         | OpenFOAM: The Open Source CFD Toolbox           |
|  \\    /   O peration     | Version:  2212                                  |
|   \\  /    A nd           | Website:  www.openfoam.com                      |
|    \\/     M anipulation  |                                                 |
\*---------------------------------------------------------------------------*/
FoamFile
{
    version     2.0;
    format      ascii;
    arch        "LSB;label=32;scalar=64";
    class       volScalarField;
    location    "6";
    object      T;
}
// * * * * * * * * * * * * * * * * * * * * * * * * * * * * * * * * * * * * * //

dimensions      [0 0 0 1 0 0 0];

internalField   nonuniform List<scalar> 
400
(
0.698111
0.707614
0.726691
0.754493
0.786083
0.813716
0.832206
0.8418
0.846235
0.848912
0.851108
0.853135
0.855071
0.856772
0.857808
0.857416
0.854341
0.846953
0.83568
0.826392
0.710863
0.722193
0.744777
0.776615
0.809265
0.832112
0.842584
0.846336
0.848065
0.849318
0.850868
0.853144
0.856252
0.859909
0.863125
0.864317
0.861082
0.851451
0.837868
0.827741
0.730538
0.745324
0.772729
0.805335
0.830536
0.84171
0.843683
0.842572
0.840437
0.838748
0.838799
0.84148
0.846839
0.854636
0.863221
0.870011
0.870626
0.860484
0.841903
0.830179
0.749725
0.768117
0.797825
0.824864
0.838287
0.838699
0.833185
0.825352
0.81712
0.810959
0.808584
0.811528
0.819487
0.832676
0.849216
0.866163
0.877791
0.875954
0.854241
0.836782
0.764739
0.785524
0.813949
0.832036
0.833789
0.82452
0.810465
0.794315
0.779286
0.768265
0.763204
0.76582
0.775733
0.793469
0.817583
0.845517
0.871936
0.887608
0.87787
0.849947
0.775238
0.796687
0.821265
0.829632
0.820823
0.802367
0.779526
0.75563
0.73485
0.719934
0.712763
0.714566
0.725365
0.745565
0.774479
0.810302
0.849
0.882885
0.897203
0.869804
0.782028
0.802596
0.822088
0.821449
0.803622
0.777034
0.746679
0.716968
0.692355
0.675216
0.666986
0.668164
0.679014
0.699825
0.730628
0.770625
0.816979
0.863471
0.89864
0.897758
0.786081
0.804859
0.81937
0.811375
0.786277
0.753012
0.716961
0.683426
0.656696
0.638661
0.63013
0.63102
0.641431
0.661574
0.691969
0.733103
0.78387
0.839034
0.887781
0.913008
0.788219
0.804822
0.815086
0.801628
0.771154
0.733058
0.693251
0.657492
0.629747
0.611461
0.602891
0.60366
0.613613
0.632709
0.661402
0.701059
0.753077
0.814557
0.873359
0.908325
0.789019
0.803529
0.810861
0.794255
0.760511
0.719333
0.677204
0.640117
0.611757
0.593221
0.584431
0.584948
0.594519
0.612855
0.639886
0.676867
0.727229
0.792135
0.860762
0.905101
0.788853
0.801562
0.807223
0.789458
0.754338
0.711819
0.668805
0.631219
0.602481
0.583517
0.574162
0.574078
0.583064
0.600728
0.626448
0.660632
0.707515
0.772731
0.848807
0.90296
0.787955
0.799263
0.80454
0.787825
0.753547
0.711475
0.668782
0.631236
0.602152
0.582534
0.572332
0.571311
0.579328
0.595995
0.620381
0.651858
0.694264
0.757517
0.839422
0.901861
0.786361
0.796679
0.802444
0.788385
0.756811
0.716865
0.675833
0.639273
0.610431
0.590462
0.57948
0.57733
0.583949
0.598961
0.621387
0.649985
0.687283
0.746234
0.831846
0.901761
0.783984
0.793727
0.800645
0.790801
0.764109
0.728338
0.690562
0.656085
0.628128
0.608087
0.596344
0.59276
0.597436
0.609955
0.629438
0.65438
0.686222
0.739608
0.826984
0.902534
0.780679
0.790297
0.798282
0.792855
0.772147
0.742179
0.709394
0.67868
0.653076
0.634057
0.622216
0.617416
0.619833
0.6291
0.644494
0.66495
0.69114
0.737356
0.82429
0.904155
0.776632
0.786343
0.795563
0.794829
0.781276
0.758835
0.732781
0.707359
0.68535
0.668222
0.656676
0.650753
0.650475
0.655716
0.66603
0.680878
0.701087
0.738919
0.824076
0.906713
0.772808
0.782163
0.791148
0.793239
0.785823
0.771206
0.753056
0.734583
0.71794
0.70438
0.694431
0.688343
0.68594
0.687376
0.692687
0.701735
0.716722
0.747495
0.828929
0.911028
0.770048
0.779505
0.789238
0.793369
0.791078
0.783609
0.773097
0.761518
0.750323
0.740521
0.732543
0.726762
0.723224
0.722081
0.72401
0.72868
0.740198
0.764466
0.838359
0.916509
0.739616
0.776216
0.779787
0.782561
0.78175
0.779063
0.775163
0.771261
0.767501
0.764788
0.762871
0.762247
0.762792
0.764388
0.768074
0.772593
0.783988
0.803719
0.860731
0.925892
0.816427
0.839227
0.851912
0.860046
0.865001
0.868498
0.870821
0.873015
0.874735
0.876802
0.878605
0.880911
0.882984
0.885599
0.888008
0.891235
0.89505
0.902901
0.917987
0.9453
)
;

boundaryField
{
    movingWall
    {
        type            fixedValue;
        value           uniform 1;
    }
    fixedWalls
    {
        type            zeroGradient;
    }
    frontAndBack
    {
        type            empty;
    }
}


// ************************************************************************* //
