/*--------------------------------*- C++ -*----------------------------------*\
| =========                 |                                                 |
| \\      /  F ield         | OpenFOAM: The Open Source CFD Toolbox           |
|  \\    /   O peration     | Version:  2212                                  |
|   \\  /    A nd           | Website:  www.openfoam.com                      |
|    \\/     M anipulation  |                                                 |
\*---------------------------------------------------------------------------*/
FoamFile
{
    version     2.0;
    format      ascii;
    arch        "LSB;label=32;scalar=64";
    class       volVectorField;
    location    "6";
    object      U;
}
// * * * * * * * * * * * * * * * * * * * * * * * * * * * * * * * * * * * * * //

dimensions      [0 1 -1 0 0 0 0];

internalField   nonuniform List<vector> 
400
(
(0.00167902 -0.0016808 0)
(0.00482915 -0.00188875 0)
(0.00657562 -0.00119877 0)
(0.00565741 -0.000573841 0)
(0.00155634 0.000185128 0)
(-0.00683796 0.00173917 0)
(-0.0206024 0.00478125 0)
(-0.0395138 0.00872468 0)
(-0.0607623 0.01128 0)
(-0.079078 0.0105055 0)
(-0.0897569 0.00677506 0)
(-0.0904229 0.00167544 0)
(-0.0802112 -0.0036057 0)
(-0.0600073 -0.00826312 0)
(-0.0335604 -0.0108376 0)
(-0.00534887 -0.00979137 0)
(0.0166651 -0.00478082 0)
(0.0244264 0.00276623 0)
(0.0161598 0.00646254 0)
(0.00431352 0.00471242 0)
(0.00171487 -0.0050531 0)
(0.00314679 -0.00401951 0)
(-0.000438327 0.000593486 0)
(-0.0113456 0.00643996 0)
(-0.0314225 0.0140388 0)
(-0.0611125 0.0237483 0)
(-0.09677 0.0330232 0)
(-0.131352 0.0370541 0)
(-0.158848 0.0334914 0)
(-0.175977 0.0233938 0)
(-0.181333 0.00912043 0)
(-0.17498 -0.00696368 0)
(-0.157489 -0.0231366 0)
(-0.12961 -0.0368735 0)
(-0.0936053 -0.0445313 0)
(-0.0522156 -0.0418209 0)
(-0.0114408 -0.0263423 0)
(0.0168438 -0.00130737 0)
(0.0178468 0.0161949 0)
(0.00553784 0.0148039 0)
(-0.000245229 -0.00575797 0)
(-0.00539218 0.000821803 0)
(-0.0196147 0.0142986 0)
(-0.0444861 0.0312102 0)
(-0.0802819 0.0493937 0)
(-0.122098 0.0642502 0)
(-0.162202 0.0704737 0)
(-0.195095 0.0659695 0)
(-0.21867 0.0521556 0)
(-0.232332 0.0315274 0)
(-0.236093 0.00643978 0)
(-0.230621 -0.0210631 0)
(-0.216229 -0.0488028 0)
(-0.192414 -0.0731489 0)
(-0.158912 -0.0889561 0)
(-0.115688 -0.0891835 0)
(-0.0645504 -0.0670216 0)
(-0.0138444 -0.0227037 0)
(0.00946503 0.0178715 0)
(0.00415484 0.0235536 0)
(-0.00347223 0.000479991 0)
(-0.0175083 0.0172524 0)
(-0.0434882 0.0414731 0)
(-0.0796137 0.0681264 0)
(-0.122838 0.0910621 0)
(-0.165683 0.103739 0)
(-0.201716 0.102802 0)
(-0.22901 0.0895935 0)
(-0.247829 0.0672799 0)
(-0.258774 0.0385715 0)
(-0.262683 0.0053504 0)
(-0.260362 -0.0310442 0)
(-0.25175 -0.0683514 0)
(-0.235801 -0.103623 0)
(-0.210526 -0.131372 0)
(-0.173223 -0.142795 0)
(-0.121329 -0.125715 0)
(-0.056827 -0.0708648 0)
(-0.00100078 0.00351283 0)
(0.00474174 0.0282068 0)
(-0.00665723 0.0148 0)
(-0.028703 0.044097 0)
(-0.0632257 0.0770267 0)
(-0.104347 0.108805 0)
(-0.147114 0.131068 0)
(-0.18437 0.138054 0)
(-0.212674 0.129377 0)
(-0.232428 0.108648 0)
(-0.244922 0.0797358 0)
(-0.251884 0.0454319 0)
(-0.255 0.007277 0)
(-0.255191 -0.0339095 0)
(-0.252234 -0.0769529 0)
(-0.245583 -0.120529 0)
(-0.232425 -0.160658 0)
(-0.208144 -0.188883 0)
(-0.166692 -0.189872 0)
(-0.10338 -0.142833 0)
(-0.0221843 -0.0388899 0)
(0.00737271 0.0270602 0)
(-0.00850001 0.0348663 0)
(-0.0351339 0.076588 0)
(-0.0730025 0.114841 0)
(-0.113122 0.147543 0)
(-0.150337 0.165856 0)
(-0.179162 0.165796 0)
(-0.198654 0.149606 0)
(-0.210368 0.122379 0)
(-0.216288 0.0884609 0)
(-0.218896 0.0508405 0)
(-0.220155 0.0109894 0)
(-0.221063 -0.0306589 0)
(-0.221819 -0.0745662 0)
(-0.222529 -0.1211 0)
(-0.221001 -0.169032 0)
(-0.212143 -0.212873 0)
(-0.187869 -0.23843 0)
(-0.139578 -0.21843 0)
(-0.0628007 -0.118906 0)
(0.00583234 0.0141724 0)
(-0.00827939 0.0569671 0)
(-0.0352902 0.109919 0)
(-0.0717359 0.150341 0)
(-0.106928 0.180988 0)
(-0.136521 0.193667 0)
(-0.156893 0.186279 0)
(-0.168769 0.163137 0)
(-0.174268 0.130385 0)
(-0.175801 0.0927867 0)
(-0.175866 0.0533588 0)
(-0.175961 0.0133433 0)
(-0.176765 -0.0271963 0)
(-0.178823 -0.069387 0)
(-0.182676 -0.114488 0)
(-0.18768 -0.163605 0)
(-0.190206 -0.215589 0)
(-0.182366 -0.261472 0)
(-0.154156 -0.275028 0)
(-0.0993127 -0.20581 0)
(-0.00890541 -0.0146463 0)
(-0.00612332 0.0775294 0)
(-0.0297432 0.14043 0)
(-0.0613323 0.181038 0)
(-0.0897605 0.208111 0)
(-0.111735 0.214688 0)
(-0.12524 0.20037 0)
(-0.131892 0.171156 0)
(-0.133998 0.134024 0)
(-0.134013 0.0939582 0)
(-0.133873 0.0536692 0)
(-0.134256 0.0138803 0)
(-0.135347 -0.0257614 0)
(-0.1376 -0.0662545 0)
(-0.141709 -0.1088 0)
(-0.148284 -0.155361 0)
(-0.156016 -0.208298 0)
(-0.158929 -0.265672 0)
(-0.146644 -0.307952 0)
(-0.112172 -0.277069 0)
(-0.0309336 -0.0753024 0)
(-0.00272192 0.0935179 0)
(-0.0203797 0.165484 0)
(-0.0450764 0.205395 0)
(-0.0662374 0.228347 0)
(-0.0814771 0.229298 0)
(-0.0899395 0.209318 0)
(-0.0935356 0.175579 0)
(-0.0944038 0.135567 0)
(-0.0946362 0.0942717 0)
(-0.0953947 0.0539145 0)
(-0.0967223 0.0145928 0)
(-0.0985261 -0.0244538 0)
(-0.100975 -0.063978 0)
(-0.104576 -0.104652 0)
(-0.110474 -0.148088 0)
(-0.119402 -0.198226 0)
(-0.128217 -0.259521 0)
(-0.12644 -0.323248 0)
(-0.107415 -0.334584 0)
(-0.037319 -0.163312 0)
(0.00122084 0.102641 0)
(-0.00892062 0.183296 0)
(-0.0255952 0.222922 0)
(-0.0395695 0.242505 0)
(-0.0490277 0.239258 0)
(-0.0538787 0.215287 0)
(-0.0558191 0.17854 0)
(-0.0564973 0.136865 0)
(-0.0574244 0.0951627 0)
(-0.0591403 0.0551224 0)
(-0.0614167 0.0162899 0)
(-0.0641097 -0.0223653 0)
(-0.0672119 -0.0614712 0)
(-0.070904 -0.101247 0)
(-0.0761206 -0.142385 0)
(-0.0844339 -0.188532 0)
(-0.0959566 -0.24803 0)
(-0.100595 -0.324086 0)
(-0.0951322 -0.372033 0)
(-0.0309079 -0.242418 0)
(0.00511119 0.103798 0)
(0.00295948 0.192876 0)
(-0.0053723 0.233399 0)
(-0.0124747 0.250519 0)
(-0.0168532 0.244421 0)
(-0.0187275 0.218205 0)
(-0.0193989 0.180149 0)
(-0.0199079 0.138094 0)
(-0.0211894 0.096691 0)
(-0.0234137 0.0572496 0)
(-0.0262944 0.0190427 0)
(-0.0297708 -0.0190544 0)
(-0.0338593 -0.0577165 0)
(-0.0385024 -0.097013 0)
(-0.0442492 -0.136881 0)
(-0.052335 -0.179731 0)
(-0.0656867 -0.235277 0)
(-0.0741962 -0.317834 0)
(-0.0811799 -0.396523 0)
(-0.0229355 -0.306953 0)
(0.00844002 0.0973308 0)
(0.0141983 0.193862 0)
(0.0140835 0.236914 0)
(0.0136915 0.253292 0)
(0.0143155 0.246197 0)
(0.0155136 0.219489 0)
(0.0163755 0.181445 0)
(0.0164316 0.139752 0)
(0.0152932 0.0988664 0)
(0.0130127 0.0600367 0)
(0.00984405 0.0225715 0)
(0.00574178 -0.0146562 0)
(0.000562976 -0.05245 0)
(-0.00554815 -0.0909227 0)
(-0.0130005 -0.129717 0)
(-0.0219459 -0.169856 0)
(-0.0376944 -0.220291 0)
(-0.0487424 -0.304181 0)
(-0.0679091 -0.408272 0)
(-0.0144615 -0.359833 0)
(0.0103024 0.084377 0)
(0.0233714 0.186276 0)
(0.0310234 0.233042 0)
(0.0369433 0.249841 0)
(0.0425949 0.242985 0)
(0.0475389 0.2172 0)
(0.0509643 0.180446 0)
(0.0526264 0.140064 0)
(0.052479 0.100355 0)
(0.0507337 0.0626364 0)
(0.0476148 0.0263949 0)
(0.0430105 -0.00944045 0)
(0.0367532 -0.0457775 0)
(0.0289616 -0.0827877 0)
(0.0188409 -0.120114 0)
(0.00754199 -0.158 0)
(-0.0118518 -0.203995 0)
(-0.0242905 -0.286178 0)
(-0.0558704 -0.41079 0)
(-0.00614615 -0.401696 0)
(0.00984874 0.0671676 0)
(0.028963 0.170495 0)
(0.0442629 0.221971 0)
(0.0567833 0.241024 0)
(0.0680552 0.236078 0)
(0.0777201 0.212716 0)
(0.0849175 0.178434 0)
(0.0893463 0.14012 0)
(0.0910842 0.10201 0)
(0.0904346 0.0656556 0)
(0.0877331 0.0309151 0)
(0.0826851 -0.00323766 0)
(0.0751885 -0.0373532 0)
(0.0655256 -0.07202 0)
(0.0523204 -0.107051 0)
(0.0374321 -0.14234 0)
(0.013037 -0.183844 0)
(-3.92874e-06 -0.262953 0)
(-0.0448413 -0.406512 0)
(0.00275108 -0.436103 0)
(0.00690811 0.049378 0)
(0.0292894 0.148817 0)
(0.0509971 0.203415 0)
(0.0698423 0.224286 0)
(0.0872868 0.221408 0)
(0.102949 0.20125 0)
(0.115586 0.17067 0)
(0.124516 0.135808 0)
(0.129653 0.100659 0)
(0.131244 0.0669031 0)
(0.12956 0.0347877 0)
(0.124633 0.00348336 0)
(0.116019 -0.0273053 0)
(0.104317 -0.0584449 0)
(0.0872783 -0.0899862 0)
(0.0681451 -0.122548 0)
(0.0381474 -0.160473 0)
(0.023759 -0.236884 0)
(-0.0344947 -0.398789 0)
(0.013453 -0.464305 0)
(0.00237864 0.0346472 0)
(0.0235757 0.123807 0)
(0.0508378 0.179771 0)
(0.0765237 0.202717 0)
(0.101146 0.202382 0)
(0.123987 0.185979 0)
(0.143399 0.159935 0)
(0.158165 0.129532 0)
(0.167871 0.0983824 0)
(0.172728 0.0681776 0)
(0.172681 0.0395112 0)
(0.168447 0.0119737 0)
(0.158627 -0.0147874 0)
(0.144925 -0.04151 0)
(0.123681 -0.0684841 0)
(0.100205 -0.0972404 0)
(0.0644284 -0.132394 0)
(0.0468977 -0.20724 0)
(-0.0227689 -0.386966 0)
(0.0285017 -0.485479 0)
(-0.0034209 0.0286638 0)
(0.0100261 0.101467 0)
(0.0370049 0.148571 0)
(0.0688162 0.169282 0)
(0.101659 0.170477 0)
(0.133328 0.158183 0)
(0.161276 0.137759 0)
(0.183773 0.113381 0)
(0.199778 0.0881311 0)
(0.209665 0.0635386 0)
(0.212568 0.0403479 0)
(0.210302 0.0184351 0)
(0.200055 -0.0025748 0)
(0.185455 -0.0231515 0)
(0.1607 -0.0437698 0)
(0.134153 -0.0675044 0)
(0.0927124 -0.101454 0)
(0.0697699 -0.179839 0)
(-0.00442702 -0.369979 0)
(0.0521317 -0.491603 0)
(-0.0139788 0.018566 0)
(-0.00751108 0.0881872 0)
(0.0191569 0.124135 0)
(0.0563273 0.137209 0)
(0.0974159 0.136772 0)
(0.137734 0.12758 0)
(0.173926 0.112929 0)
(0.203713 0.0951669 0)
(0.225561 0.0767214 0)
(0.240613 0.0586067 0)
(0.246629 0.0417773 0)
(0.247536 0.0261269 0)
(0.23822 0.0118117 0)
(0.226433 -0.00194356 0)
(0.201498 -0.0159514 0)
(0.177595 -0.0348746 0)
(0.13334 -0.067655 0)
(0.107732 -0.145918 0)
(0.0374243 -0.32611 0)
(0.0923479 -0.455869 0)
(-0.105996 0.0824523 0)
(-0.0777379 0.069021 0)
(-0.0485721 0.0733499 0)
(0.00372802 0.0778372 0)
(0.0571832 0.078151 0)
(0.109852 0.0738788 0)
(0.156962 0.0665463 0)
(0.199266 0.0571515 0)
(0.231334 0.0474926 0)
(0.25945 0.037856 0)
(0.275164 0.0292134 0)
(0.290316 0.0212497 0)
(0.290691 0.0145153 0)
(0.294834 0.00814796 0)
(0.278595 0.00119542 0)
(0.271444 -0.00994334 0)
(0.232198 -0.0355081 0)
(0.218081 -0.0953936 0)
(0.150198 -0.229723 0)
(0.17067 -0.341462 0)
(0.129982 0.103753 0)
(0.158347 0.0752522 0)
(0.212209 0.0532558 0)
(0.270717 0.0416454 0)
(0.323274 0.0359279 0)
(0.375684 0.0319562 0)
(0.420242 0.0289199 0)
(0.465521 0.0255824 0)
(0.498584 0.0229052 0)
(0.533809 0.0197145 0)
(0.553234 0.0175548 0)
(0.579043 0.0146198 0)
(0.585192 0.0131785 0)
(0.603554 0.0103622 0)
(0.595008 0.0094018 0)
(0.603547 0.00501604 0)
(0.567776 0.000102085 0)
(0.547635 -0.0183086 0)
(0.43573 -0.0504147 0)
(0.336772 -0.10139 0)
)
;

boundaryField
{
    movingWall
    {
        type            fixedValue;
        value           uniform (1 0 0);
    }
    fixedWalls
    {
        type            noSlip;
    }
    frontAndBack
    {
        type            empty;
    }
}


// ************************************************************************* //
