/*--------------------------------*- C++ -*----------------------------------*\
| =========                 |                                                 |
| \\      /  F ield         | OpenFOAM: The Open Source CFD Toolbox           |
|  \\    /   O peration     | Version:  2212                                  |
|   \\  /    A nd           | Website:  www.openfoam.com                      |
|    \\/     M anipulation  |                                                 |
\*---------------------------------------------------------------------------*/
FoamFile
{
    version     2.0;
    format      ascii;
    arch        "LSB;label=32;scalar=64";
    class       volScalarField;
    location    "17.8";
    object      T;
}
// * * * * * * * * * * * * * * * * * * * * * * * * * * * * * * * * * * * * * //

dimensions      [0 0 0 1 0 0 0];

internalField   nonuniform List<scalar> 
400
(
0.977543
0.978012
0.978964
0.980374
0.98202
0.983528
0.984613
0.98525
0.985596
0.985832
0.986047
0.986271
0.98651
0.986758
0.986976
0.987104
0.987039
0.986677
0.986076
0.985583
0.978142
0.978717
0.97987
0.981522
0.983275
0.984572
0.985211
0.985436
0.985512
0.985569
0.985689
0.985918
0.986272
0.986732
0.987206
0.987553
0.987558
0.987057
0.986265
0.985696
0.979076
0.97985
0.981287
0.983019
0.984385
0.984965
0.98494
0.984654
0.984298
0.984029
0.983983
0.984254
0.984848
0.985744
0.986783
0.987727
0.988183
0.987757
0.986613
0.985904
0.979991
0.980971
0.982539
0.983943
0.984538
0.984261
0.983477
0.98248
0.981496
0.980769
0.980485
0.9808
0.981674
0.983128
0.984961
0.986891
0.98839
0.988769
0.987505
0.98639
0.980694
0.981792
0.983235
0.98401
0.983688
0.982481
0.980795
0.97894
0.977244
0.976006
0.975448
0.97575
0.976864
0.978831
0.98147
0.984498
0.987384
0.98931
0.989104
0.987291
0.981155
0.982245
0.983354
0.983357
0.982081
0.979913
0.977287
0.974591
0.97224
0.970552
0.969751
0.969982
0.971242
0.973551
0.976795
0.980726
0.984881
0.98849
0.99029
0.988607
0.981407
0.982376
0.98303
0.982249
0.980081
0.977024
0.973558
0.970173
0.967331
0.965344
0.964397
0.964564
0.965871
0.968324
0.971882
0.976391
0.981475
0.986423
0.990101
0.990497
0.98151
0.982303
0.982501
0.98103
0.978095
0.974278
0.97014
0.966256
0.963106
0.960967
0.959962
0.960105
0.961398
0.96384
0.96744
0.972184
0.977865
0.983844
0.988943
0.991507
0.98151
0.982116
0.981913
0.979891
0.976362
0.971978
0.967369
0.963164
0.959837
0.957627
0.956599
0.956731
0.957998
0.96037
0.963854
0.968534
0.974464
0.981219
0.98746
0.991045
0.981448
0.981899
0.981423
0.979057
0.975144
0.970384
0.965467
0.961056
0.957613
0.955342
0.954273
0.954374
0.95561
0.957923
0.961264
0.965718
0.971568
0.978792
0.986117
0.990695
0.981343
0.981689
0.981061
0.97853
0.974433
0.969502
0.964456
0.959956
0.956446
0.954105
0.952958
0.952985
0.954157
0.956404
0.959618
0.963799
0.969337
0.976689
0.98487
0.990472
0.98121
0.981508
0.980876
0.978406
0.97436
0.969464
0.964444
0.959942
0.956387
0.953962
0.952708
0.952616
0.953667
0.955793
0.958854
0.962741
0.967823
0.975027
0.983871
0.990349
0.981045
0.981345
0.980807
0.978557
0.974759
0.970095
0.965274
0.960906
0.957397
0.954942
0.953594
0.953359
0.954229
0.956143
0.958957
0.962505
0.967028
0.973811
0.983083
0.990336
0.980838
0.981188
0.980846
0.978996
0.975671
0.971461
0.967025
0.962928
0.959559
0.957119
0.95569
0.955277
0.955895
0.957485
0.959924
0.963021
0.966915
0.973104
0.982574
0.99041
0.980566
0.980993
0.980845
0.979431
0.976695
0.97311
0.969257
0.965632
0.962581
0.960297
0.958875
0.958315
0.958645
0.959821
0.961744
0.964285
0.967507
0.972901
0.98231
0.990575
0.980246
0.980767
0.980872
0.979969
0.977949
0.975152
0.972048
0.969048
0.966447
0.964418
0.963053
0.962366
0.962367
0.963045
0.964341
0.966195
0.968688
0.973122
0.982302
0.990835
0.979925
0.980439
0.980626
0.980092
0.978734
0.976773
0.974536
0.972325
0.970355
0.968758
0.967594
0.966896
0.966644
0.966864
0.967551
0.968698
0.970535
0.974125
0.982839
0.991277
0.9797
0.980326
0.980705
0.980486
0.979718
0.978533
0.977123
0.975672
0.974314
0.97315
0.972216
0.971556
0.971165
0.971068
0.971327
0.971917
0.973266
0.976025
0.983843
0.991835
0.976634
0.979638
0.979624
0.979512
0.979098
0.978548
0.977921
0.977339
0.976804
0.976409
0.97612
0.975988
0.975994
0.976129
0.976495
0.976963
0.978165
0.980258
0.986186
0.99279
0.983589
0.985572
0.986633
0.987268
0.987606
0.987818
0.987928
0.98804
0.988119
0.988243
0.988354
0.988521
0.988677
0.988889
0.989094
0.989379
0.989743
0.990511
0.992044
0.994742
)
;

boundaryField
{
    movingWall
    {
        type            fixedValue;
        value           uniform 1;
    }
    fixedWalls
    {
        type            zeroGradient;
    }
    frontAndBack
    {
        type            empty;
    }
}


// ************************************************************************* //
