/*--------------------------------*- C++ -*----------------------------------*\
| =========                 |                                                 |
| \\      /  F ield         | OpenFOAM: The Open Source CFD Toolbox           |
|  \\    /   O peration     | Version:  2212                                  |
|   \\  /    A nd           | Website:  www.openfoam.com                      |
|    \\/     M anipulation  |                                                 |
\*---------------------------------------------------------------------------*/
FoamFile
{
    version     2.0;
    format      ascii;
    arch        "LSB;label=32;scalar=64";
    class       volScalarField;
    location    "18.6";
    object      T;
}
// * * * * * * * * * * * * * * * * * * * * * * * * * * * * * * * * * * * * * //

dimensions      [0 0 0 1 0 0 0];

internalField   nonuniform List<scalar> 
400
(
0.980746
0.981148
0.981963
0.983169
0.984579
0.985869
0.9868
0.987345
0.987642
0.987845
0.988029
0.988221
0.988426
0.988639
0.988827
0.988936
0.988881
0.988571
0.988056
0.987634
0.981259
0.981751
0.982738
0.984152
0.985653
0.986764
0.987312
0.987504
0.98757
0.987619
0.987721
0.987917
0.988221
0.988617
0.989023
0.989322
0.989326
0.988897
0.988218
0.98773
0.982058
0.982721
0.983951
0.985434
0.986604
0.987101
0.987079
0.986833
0.986528
0.986296
0.986256
0.986489
0.986998
0.987768
0.98866
0.98947
0.989862
0.989497
0.988517
0.987909
0.982841
0.98368
0.985023
0.986225
0.986734
0.986496
0.985823
0.984967
0.984122
0.983498
0.983254
0.983524
0.984275
0.985522
0.987096
0.988752
0.990039
0.990365
0.989281
0.988326
0.983443
0.984382
0.985618
0.986281
0.986004
0.984968
0.983521
0.981928
0.980472
0.979411
0.978931
0.979191
0.980147
0.981834
0.9841
0.986698
0.989175
0.990828
0.990653
0.989098
0.983837
0.98477
0.985719
0.98572
0.984624
0.982764
0.98051
0.978196
0.976178
0.974729
0.974042
0.97424
0.975321
0.977304
0.980087
0.983462
0.987027
0.990124
0.991669
0.990227
0.984053
0.984882
0.98544
0.984769
0.982908
0.980284
0.977309
0.974404
0.971965
0.97026
0.969446
0.96959
0.970711
0.972817
0.97587
0.979741
0.984104
0.988351
0.991506
0.991847
0.98414
0.984819
0.984986
0.983722
0.981203
0.977927
0.974376
0.971042
0.968338
0.966502
0.96564
0.965762
0.966872
0.968968
0.972059
0.97613
0.981006
0.986137
0.990513
0.992713
0.98414
0.984658
0.984481
0.982745
0.979716
0.975953
0.971997
0.968388
0.965533
0.963635
0.962753
0.962866
0.963953
0.965989
0.96898
0.972997
0.978087
0.983885
0.98924
0.992316
0.984086
0.984471
0.984061
0.982029
0.97867
0.974585
0.970365
0.966578
0.963623
0.961674
0.960756
0.960843
0.961904
0.963889
0.966757
0.97058
0.975601
0.981801
0.988088
0.992016
0.983996
0.984291
0.98375
0.981577
0.97806
0.973828
0.969497
0.965635
0.962621
0.960612
0.959627
0.959651
0.960657
0.962585
0.965344
0.968933
0.973687
0.979996
0.987018
0.991824
0.983882
0.984136
0.983591
0.98147
0.977998
0.973796
0.969486
0.965623
0.962571
0.96049
0.959413
0.959334
0.960236
0.962061
0.964688
0.968025
0.972387
0.97857
0.98616
0.99172
0.98374
0.983996
0.983532
0.9816
0.97834
0.974337
0.970199
0.966449
0.963438
0.96133
0.960174
0.959972
0.960719
0.962361
0.964777
0.967822
0.971705
0.977526
0.985484
0.991708
0.983562
0.983862
0.983566
0.981978
0.979123
0.975509
0.971702
0.968186
0.965293
0.963199
0.961973
0.961618
0.962149
0.963514
0.965607
0.968265
0.971608
0.97692
0.985047
0.991772
0.98333
0.983694
0.983565
0.982351
0.980002
0.976925
0.973618
0.970507
0.967888
0.965927
0.964706
0.964225
0.964509
0.965518
0.967169
0.96935
0.972116
0.976746
0.984821
0.991913
0.983054
0.983501
0.983589
0.982813
0.981078
0.978678
0.976013
0.973438
0.971206
0.969464
0.968292
0.967703
0.967704
0.968286
0.969398
0.97099
0.97313
0.976935
0.984814
0.992136
0.98278
0.98322
0.983378
0.982919
0.981753
0.980069
0.978149
0.976252
0.97456
0.973189
0.97219
0.971592
0.971375
0.971564
0.972154
0.973138
0.974715
0.977797
0.985275
0.992516
0.982586
0.983123
0.983447
0.983258
0.982598
0.981581
0.98037
0.979124
0.977958
0.976959
0.976158
0.975591
0.975255
0.975172
0.975395
0.975901
0.977059
0.979427
0.986136
0.992994
0.979955
0.982532
0.982519
0.982422
0.982066
0.981594
0.981056
0.980556
0.980097
0.979758
0.979509
0.979396
0.979401
0.979516
0.97983
0.980233
0.981264
0.98306
0.988146
0.993813
0.985922
0.987623
0.988533
0.989077
0.989367
0.989549
0.989643
0.989739
0.989806
0.989913
0.990008
0.990151
0.990285
0.990467
0.990643
0.990887
0.991199
0.991858
0.993174
0.995489
)
;

boundaryField
{
    movingWall
    {
        type            fixedValue;
        value           uniform 1;
    }
    fixedWalls
    {
        type            zeroGradient;
    }
    frontAndBack
    {
        type            empty;
    }
}


// ************************************************************************* //
