/*--------------------------------*- C++ -*----------------------------------*\
| =========                 |                                                 |
| \\      /  F ield         | OpenFOAM: The Open Source CFD Toolbox           |
|  \\    /   O peration     | Version:  2212                                  |
|   \\  /    A nd           | Website:  www.openfoam.com                      |
|    \\/     M anipulation  |                                                 |
\*---------------------------------------------------------------------------*/
FoamFile
{
    version     2.0;
    format      ascii;
    arch        "LSB;label=32;scalar=64";
    class       volVectorField;
    location    "13.7";
    object      U;
}
// * * * * * * * * * * * * * * * * * * * * * * * * * * * * * * * * * * * * * //

dimensions      [0 1 -1 0 0 0 0];

internalField   nonuniform List<vector> 
400
(
(0.00168195 -0.00168362 0)
(0.00483899 -0.00189219 0)
(0.00659141 -0.00120072 0)
(0.00567507 -0.000575136 0)
(0.00157244 0.000183965 0)
(-0.00682904 0.00173938 0)
(-0.0206084 0.00478646 0)
(-0.0395419 0.00873632 0)
(-0.0608126 0.011293 0)
(-0.0791395 0.0105127 0)
(-0.0898147 0.0067745 0)
(-0.0904649 0.0016688 0)
(-0.0802269 -0.00361678 0)
(-0.0599939 -0.00827528 0)
(-0.0335202 -0.0108474 0)
(-0.00529146 -0.0097954 0)
(0.0167252 -0.00477288 0)
(0.0244717 0.00277714 0)
(0.0161792 0.00647251 0)
(0.00431662 0.00471726 0)
(0.00172064 -0.00506512 0)
(0.00316303 -0.0040325 0)
(-0.000416661 0.000587745 0)
(-0.0113296 0.00644178 0)
(-0.0314262 0.0140504 0)
(-0.0611511 0.0237747 0)
(-0.0968492 0.0330629 0)
(-0.131463 0.037094 0)
(-0.158977 0.0335184 0)
(-0.176109 0.0234017 0)
(-0.181456 0.00910903 0)
(-0.175084 -0.00699086 0)
(-0.157565 -0.0231755 0)
(-0.129654 -0.0369157 0)
(-0.0936156 -0.0445671 0)
(-0.0521942 -0.0418397 0)
(-0.0113991 -0.0263342 0)
(0.0168909 -0.00127831 0)
(0.0178729 0.0162247 0)
(0.00554235 0.0148205 0)
(-0.000239462 -0.00578073 0)
(-0.00538093 0.000801489 0)
(-0.0196095 0.0142996 0)
(-0.0445051 0.0312371 0)
(-0.0803439 0.0494478 0)
(-0.12221 0.0643237 0)
(-0.162357 0.0705499 0)
(-0.195281 0.0660315 0)
(-0.218875 0.0521928 0)
(-0.232544 0.0315344 0)
(-0.2363 0.00641565 0)
(-0.230813 -0.0211153 0)
(-0.216398 -0.0488761 0)
(-0.192551 -0.0732306 0)
(-0.159012 -0.0890304 0)
(-0.115745 -0.0892325 0)
(-0.0645643 -0.0670301 0)
(-0.0138207 -0.0226636 0)
(0.00948194 0.01792 0)
(0.00415547 0.023581 0)
(-0.00347199 0.000452807 0)
(-0.0175153 0.0172406 0)
(-0.0435181 0.0415027 0)
(-0.0796867 0.0681987 0)
(-0.122967 0.0911665 0)
(-0.165863 0.103855 0)
(-0.201937 0.102909 0)
(-0.229263 0.0896761 0)
(-0.248103 0.0673289 0)
(-0.259059 0.0385805 0)
(-0.262966 0.00531628 0)
(-0.260633 -0.0311203 0)
(-0.251999 -0.0684601 0)
(-0.236019 -0.10375 0)
(-0.210705 -0.131498 0)
(-0.173356 -0.142897 0)
(-0.121408 -0.125769 0)
(-0.0568461 -0.0708536 0)
(-0.000986606 0.00356795 0)
(0.00474231 0.0282419 0)
(-0.00666313 0.0147829 0)
(-0.0287319 0.0441132 0)
(-0.0632949 0.0771005 0)
(-0.104471 0.10893 0)
(-0.147295 0.131221 0)
(-0.184598 0.138209 0)
(-0.21294 0.129514 0)
(-0.232725 0.108755 0)
(-0.245244 0.0798024 0)
(-0.252221 0.0454493 0)
(-0.255341 0.00723919 0)
(-0.255522 -0.0340017 0)
(-0.252542 -0.0770899 0)
(-0.245858 -0.120696 0)
(-0.232661 -0.160833 0)
(-0.208335 -0.189043 0)
(-0.166831 -0.189991 0)
(-0.103455 -0.142885 0)
(-0.0221828 -0.038853 0)
(0.00738232 0.0271029 0)
(-0.00851171 0.0348754 0)
(-0.0351811 0.0766453 0)
(-0.073101 0.114965 0)
(-0.113278 0.147719 0)
(-0.150546 0.166053 0)
(-0.179412 0.165989 0)
(-0.19894 0.149778 0)
(-0.210689 0.122516 0)
(-0.21664 0.0885525 0)
(-0.219273 0.0508734 0)
(-0.220543 0.0109544 0)
(-0.221443 -0.030762 0)
(-0.222174 -0.0747284 0)
(-0.222846 -0.121302 0)
(-0.221271 -0.169249 0)
(-0.212366 -0.213082 0)
(-0.188044 -0.238609 0)
(-0.1397 -0.218557 0)
(-0.0628543 -0.118949 0)
(0.00584981 0.0142046 0)
(-0.00829413 0.0570107 0)
(-0.0353473 0.110023 0)
(-0.0718478 0.150514 0)
(-0.107094 0.181211 0)
(-0.136734 0.193906 0)
(-0.157144 0.186511 0)
(-0.169057 0.163346 0)
(-0.174598 0.130559 0)
(-0.176174 0.0929105 0)
(-0.176275 0.0534138 0)
(-0.176389 0.0133138 0)
(-0.177189 -0.0273153 0)
(-0.179221 -0.0695863 0)
(-0.183027 -0.114741 0)
(-0.187973 -0.163876 0)
(-0.190441 -0.215845 0)
(-0.18255 -0.261695 0)
(-0.154298 -0.275212 0)
(-0.0994134 -0.205931 0)
(-0.00890857 -0.0146247 0)
(-0.006137 0.0776103 0)
(-0.0297988 0.140579 0)
(-0.0614399 0.181256 0)
(-0.089916 0.208377 0)
(-0.11193 0.214968 0)
(-0.12547 0.20064 0)
(-0.132163 0.171407 0)
(-0.134318 0.134241 0)
(-0.134383 0.0941234 0)
(-0.134285 0.0537557 0)
(-0.134693 0.0138632 0)
(-0.135786 -0.0258942 0)
(-0.138018 -0.0664946 0)
(-0.142079 -0.109116 0)
(-0.14859 -0.155706 0)
(-0.156251 -0.208621 0)
(-0.159104 -0.265945 0)
(-0.146773 -0.308178 0)
(-0.112271 -0.277247 0)
(-0.0309704 -0.075346 0)
(-0.00273103 0.0936333 0)
(-0.0204245 0.165676 0)
(-0.0451653 0.205653 0)
(-0.0663657 0.22865 0)
(-0.0816385 0.229613 0)
(-0.0901323 0.209625 0)
(-0.0937676 0.175872 0)
(-0.0946825 0.135833 0)
(-0.0949625 0.0944838 0)
(-0.09576 0.0540379 0)
(-0.0971109 0.0145943 0)
(-0.0989211 -0.0245906 0)
(-0.101357 -0.0642463 0)
(-0.104922 -0.105022 0)
(-0.110766 -0.148506 0)
(-0.119624 -0.198626 0)
(-0.128374 -0.259853 0)
(-0.126544 -0.323513 0)
(-0.107495 -0.334815 0)
(-0.0373555 -0.163466 0)
(0.0012193 0.102782 0)
(-0.00894671 0.183522 0)
(-0.0256535 0.223212 0)
(-0.0396563 0.242837 0)
(-0.0491387 0.239604 0)
(-0.0540139 0.21563 0)
(-0.0559856 0.178873 0)
(-0.0567006 0.137174 0)
(-0.0576633 0.0954165 0)
(-0.0594067 0.0552785 0)
(-0.0617004 0.016311 0)
(-0.0644011 -0.022497 0)
(-0.0674998 -0.061751 0)
(-0.0711744 -0.101649 0)
(-0.0763571 -0.142859 0)
(-0.0846175 -0.189003 0)
(-0.096083 -0.248422 0)
(-0.100664 -0.324381 0)
(-0.0951831 -0.372284 0)
(-0.0309266 -0.242622 0)
(0.00511927 0.10395 0)
(0.0029574 0.193124 0)
(-0.00539202 0.233709 0)
(-0.0125107 0.250872 0)
(-0.016903 0.244789 0)
(-0.0187911 0.218571 0)
(-0.0194804 0.180509 0)
(-0.0200098 0.138432 0)
(-0.0213089 0.0969722 0)
(-0.0235454 0.0574298 0)
(-0.0264346 0.0190835 0)
(-0.0299183 -0.0191714 0)
(-0.034013 -0.0579891 0)
(-0.0386568 -0.09742 0)
(-0.0443951 -0.13738 0)
(-0.0524543 -0.180253 0)
(-0.06577 -0.235724 0)
(-0.074227 -0.318161 0)
(-0.0812037 -0.39679 0)
(-0.0229436 -0.307184 0)
(0.00845934 0.0974748 0)
(0.0142233 0.194118 0)
(0.0141063 0.237233 0)
(0.0137118 0.253654 0)
(0.0143347 0.246576 0)
(0.0155319 0.219868 0)
(0.0163916 0.181818 0)
(0.0164454 0.140102 0)
(0.0153077 0.0991602 0)
(0.0130308 0.0602301 0)
(0.00986298 0.0226281 0)
(0.0057545 -0.014755 0)
(0.000562281 -0.0527034 0)
(-0.00556392 -0.0913127 0)
(-0.0130324 -0.130211 0)
(-0.0219796 -0.170394 0)
(-0.0377201 -0.22077 0)
(-0.0487297 -0.304523 0)
(-0.0679046 -0.408533 0)
(-0.0144592 -0.360067 0)
(0.0103314 0.0844937 0)
(0.0234235 0.186521 0)
(0.0310886 0.233356 0)
(0.0370195 0.250199 0)
(0.0426826 0.243361 0)
(0.0476386 0.217576 0)
(0.051077 0.180813 0)
(0.0527539 0.140405 0)
(0.0526235 0.100641 0)
(0.0508952 0.0628278 0)
(0.0477859 0.0264588 0)
(0.0431778 -0.00952268 0)
(0.0369033 -0.0460073 0)
(0.0290867 -0.0831493 0)
(0.0189298 -0.12058 0)
(0.00760252 -0.158525 0)
(-0.0118137 -0.204483 0)
(-0.0242356 -0.286525 0)
(-0.0558423 -0.411039 0)
(-0.006137 -0.401913 0)
(0.00988016 0.0672396 0)
(0.029036 0.17071 0)
(0.0443649 0.222263 0)
(0.0569101 0.241363 0)
(0.0682065 0.236438 0)
(0.0778964 0.213076 0)
(0.0851204 0.178782 0)
(0.0895777 0.140439 0)
(0.0913449 0.102276 0)
(0.0907216 0.0658356 0)
(0.0880372 0.0309813 0)
(0.0829879 -0.00330378 0)
(0.0754722 -0.037553 0)
(0.0657782 -0.0723409 0)
(0.0525235 -0.107471 0)
(0.0375869 -0.142824 0)
(0.0131412 -0.18431 0)
(8.74925e-05 -0.263285 0)
(-0.0447939 -0.406738 0)
(0.00276677 -0.436288 0)
(0.0069313 0.0493984 0)
(0.0293714 0.148983 0)
(0.0511246 0.20367 0)
(0.0700076 0.224593 0)
(0.087488 0.221738 0)
(0.103187 0.20158 0)
(0.115861 0.170984 0)
(0.12483 0.136092 0)
(0.130005 0.100891 0)
(0.131628 0.0670582 0)
(0.129966 0.0348452 0)
(0.125042 0.0034275 0)
(0.11641 -0.0274748 0)
(0.104675 -0.0587193 0)
(0.0875767 -0.0903478 0)
(0.068382 -0.12297 0)
(0.0383117 -0.16089 0)
(0.0238692 -0.237184 0)
(-0.0344351 -0.398983 0)
(0.0134768 -0.464443 0)
(0.00238766 0.0346255 0)
(0.0236467 0.12391 0)
(0.0509704 0.179971 0)
(0.0767087 0.202975 0)
(0.10138 0.202667 0)
(0.124269 0.186266 0)
(0.143729 0.160208 0)
(0.158543 0.129775 0)
(0.168292 0.0985789 0)
(0.173186 0.0683089 0)
(0.173162 0.0395622 0)
(0.168935 0.0119332 0)
(0.159096 -0.0149197 0)
(0.14536 -0.04173 0)
(0.124051 -0.0687772 0)
(0.100504 -0.0975822 0)
(0.0646417 -0.132738 0)
(0.0470173 -0.207477 0)
(-0.022699 -0.387095 0)
(0.0285355 -0.485566 0)
(-0.00342648 0.0286108 0)
(0.0100759 0.101505 0)
(0.037122 0.148711 0)
(0.0689941 0.169482 0)
(0.101896 0.170705 0)
(0.133623 0.158415 0)
(0.161628 0.137978 0)
(0.18418 0.113573 0)
(0.200234 0.0882818 0)
(0.210163 0.0636362 0)
(0.213089 0.0403809 0)
(0.210836 0.0183989 0)
(0.20057 -0.00268462 0)
(0.185934 -0.0233259 0)
(0.161113 -0.0439954 0)
(0.134487 -0.0677594 0)
(0.0929464 -0.101711 0)
(0.0698853 -0.180027 0)
(-0.00436251 -0.370059 0)
(0.0521638 -0.491645 0)
(-0.0140135 0.0185147 0)
(-0.00751627 0.0881755 0)
(0.0192246 0.1242 0)
(0.0564651 0.137331 0)
(0.0976272 0.136925 0)
(0.138018 0.127743 0)
(0.174279 0.113086 0)
(0.204132 0.0953052 0)
(0.226033 0.07683 0)
(0.241131 0.058678 0)
(0.247168 0.0418019 0)
(0.248085 0.0261044 0)
(0.238743 0.0117373 0)
(0.226923 -0.0020565 0)
(0.201918 -0.0160989 0)
(0.177925 -0.0350362 0)
(0.133569 -0.0678144 0)
(0.107848 -0.146008 0)
(0.0374758 -0.32612 0)
(0.0923689 -0.455871 0)
(-0.106021 0.0824161 0)
(-0.0777611 0.0689893 0)
(-0.0485677 0.0733715 0)
(0.00378481 0.0778936 0)
(0.0573056 0.078229 0)
(0.110044 0.0739654 0)
(0.157218 0.0666299 0)
(0.199587 0.0572245 0)
(0.231703 0.0475472 0)
(0.259859 0.0378891 0)
(0.275587 0.0292201 0)
(0.290743 0.0212322 0)
(0.291093 0.0144731 0)
(0.295201 0.00808867 0)
(0.278894 0.00111955 0)
(0.271674 -0.0100179 0)
(0.232357 -0.0355722 0)
(0.218147 -0.0954209 0)
(0.150209 -0.229723 0)
(0.170672 -0.341455 0)
(0.129968 0.103744 0)
(0.158319 0.0752267 0)
(0.212163 0.0532263 0)
(0.270671 0.0416217 0)
(0.323248 0.0359124 0)
(0.375692 0.0319484 0)
(0.42029 0.0289164 0)
(0.465612 0.025581 0)
(0.49871 0.0229029 0)
(0.533962 0.0197104 0)
(0.553402 0.0175473 0)
(0.579212 0.0146092 0)
(0.585349 0.0131642 0)
(0.603686 0.0103451 0)
(0.595104 0.00938259 0)
(0.603603 0.00499898 0)
(0.567792 8.85685e-05 0)
(0.547612 -0.0183163 0)
(0.435689 -0.0504144 0)
(0.336753 -0.101385 0)
)
;

boundaryField
{
    movingWall
    {
        type            fixedValue;
        value           uniform (1 0 0);
    }
    fixedWalls
    {
        type            noSlip;
    }
    frontAndBack
    {
        type            empty;
    }
}


// ************************************************************************* //
