/*--------------------------------*- C++ -*----------------------------------*\
| =========                 |                                                 |
| \\      /  F ield         | OpenFOAM: The Open Source CFD Toolbox           |
|  \\    /   O peration     | Version:  2212                                  |
|   \\  /    A nd           | Website:  www.openfoam.com                      |
|    \\/     M anipulation  |                                                 |
\*---------------------------------------------------------------------------*/
FoamFile
{
    version     2.0;
    format      ascii;
    arch        "LSB;label=32;scalar=64";
    class       volVectorField;
    location    "6.8";
    object      U;
}
// * * * * * * * * * * * * * * * * * * * * * * * * * * * * * * * * * * * * * //

dimensions      [0 1 -1 0 0 0 0];

internalField   nonuniform List<vector> 
400
(
(0.00168086 -0.00168201 0)
(0.00483482 -0.00189047 0)
(0.00658426 -0.00119976 0)
(0.00566694 -0.000574501 0)
(0.00156499 0.000184531 0)
(-0.00683316 0.0017393 0)
(-0.0206055 0.00478404 0)
(-0.0395287 0.00873088 0)
(-0.060789 0.0112869 0)
(-0.0791106 0.0105093 0)
(-0.0897876 0.00677485 0)
(-0.0904454 0.00167203 0)
(-0.08022 -0.00361147 0)
(-0.0600009 -0.00826949 0)
(-0.0335399 -0.0108428 0)
(-0.00531919 -0.00979356 0)
(0.0166964 -0.00477678 0)
(0.0244502 0.00277189 0)
(0.01617 0.00646775 0)
(0.00431517 0.00471497 0)
(0.00171804 -0.00505905 0)
(0.00315561 -0.00402619 0)
(-0.000426686 0.000590561 0)
(-0.0113371 0.00644103 0)
(-0.0314245 0.014045 0)
(-0.061133 0.0237624 0)
(-0.096812 0.0330443 0)
(-0.131411 0.0370752 0)
(-0.158916 0.0335056 0)
(-0.176047 0.023398 0)
(-0.181398 0.00911452 0)
(-0.175035 -0.00697787 0)
(-0.157529 -0.023157 0)
(-0.129633 -0.0368956 0)
(-0.0936113 -0.0445502 0)
(-0.052205 -0.041831 0)
(-0.0114193 -0.0263384 0)
(0.0168683 -0.00129234 0)
(0.0178605 0.0162105 0)
(0.00554023 0.0148126 0)
(-0.000242147 -0.0057698 0)
(-0.00538619 0.000811262 0)
(-0.019612 0.0142994 0)
(-0.0444963 0.0312247 0)
(-0.0803149 0.0494225 0)
(-0.122157 0.064289 0)
(-0.162284 0.0705137 0)
(-0.195193 0.066002 0)
(-0.218777 0.052175 0)
(-0.232443 0.031531 0)
(-0.236201 0.00642715 0)
(-0.230722 -0.0210904 0)
(-0.216318 -0.0488412 0)
(-0.192486 -0.0731918 0)
(-0.158965 -0.0889952 0)
(-0.115718 -0.0892096 0)
(-0.0645581 -0.0670265 0)
(-0.0138323 -0.0226831 0)
(0.00947382 0.0178968 0)
(0.00415518 0.023568 0)
(-0.00347212 0.000465805 0)
(-0.0175121 0.0172465 0)
(-0.0435042 0.0414891 0)
(-0.0796524 0.0681649 0)
(-0.122906 0.0911172 0)
(-0.165778 0.1038 0)
(-0.201832 0.102858 0)
(-0.229142 0.0896365 0)
(-0.247972 0.0673053 0)
(-0.258922 0.038576 0)
(-0.26283 0.00533254 0)
(-0.260503 -0.0310839 0)
(-0.25188 -0.0684081 0)
(-0.235915 -0.103689 0)
(-0.210619 -0.131438 0)
(-0.173292 -0.142849 0)
(-0.12137 -0.125744 0)
(-0.0568373 -0.0708595 0)
(-0.000993494 0.00354141 0)
(0.00474205 0.0282251 0)
(-0.00666037 0.0147912 0)
(-0.0287183 0.0441059 0)
(-0.0632623 0.077066 0)
(-0.104412 0.108871 0)
(-0.147209 0.131148 0)
(-0.184489 0.138135 0)
(-0.212812 0.129448 0)
(-0.232582 0.108703 0)
(-0.245089 0.0797701 0)
(-0.252059 0.0454407 0)
(-0.255176 0.00725723 0)
(-0.255363 -0.0339574 0)
(-0.252393 -0.0770241 0)
(-0.245726 -0.120616 0)
(-0.232547 -0.160749 0)
(-0.208244 -0.188967 0)
(-0.166764 -0.189934 0)
(-0.103419 -0.142861 0)
(-0.0221837 -0.0388711 0)
(0.00737771 0.0270824 0)
(-0.00850618 0.0348714 0)
(-0.0351588 0.0766185 0)
(-0.0730544 0.114907 0)
(-0.113204 0.147636 0)
(-0.150446 0.165959 0)
(-0.179292 0.165897 0)
(-0.198802 0.149695 0)
(-0.210534 0.12245 0)
(-0.21647 0.088508 0)
(-0.219091 0.0508573 0)
(-0.220355 0.0109711 0)
(-0.221259 -0.0307124 0)
(-0.222003 -0.0746503 0)
(-0.222693 -0.121204 0)
(-0.221141 -0.169145 0)
(-0.212259 -0.212982 0)
(-0.18796 -0.238523 0)
(-0.139642 -0.218496 0)
(-0.0628288 -0.118929 0)
(0.00584138 0.0141891 0)
(-0.00828713 0.0569904 0)
(-0.0353202 0.109974 0)
(-0.0717946 0.150433 0)
(-0.107015 0.181105 0)
(-0.136632 0.193792 0)
(-0.157023 0.186399 0)
(-0.168918 0.163245 0)
(-0.174438 0.130474 0)
(-0.175994 0.0928503 0)
(-0.176077 0.0533869 0)
(-0.176182 0.0133279 0)
(-0.176984 -0.0272579 0)
(-0.179028 -0.0694901 0)
(-0.182857 -0.114619 0)
(-0.187831 -0.163745 0)
(-0.190328 -0.215722 0)
(-0.182461 -0.261588 0)
(-0.15423 -0.275124 0)
(-0.0993651 -0.205874 0)
(-0.00890715 -0.0146352 0)
(-0.00613047 0.0775722 0)
(-0.0297724 0.140509 0)
(-0.0613886 0.181152 0)
(-0.0898416 0.20825 0)
(-0.111836 0.214834 0)
(-0.125359 0.20051 0)
(-0.132032 0.171285 0)
(-0.134163 0.134136 0)
(-0.134204 0.0940431 0)
(-0.134086 0.0537135 0)
(-0.134482 0.0138713 0)
(-0.135574 -0.02583 0)
(-0.137816 -0.0663785 0)
(-0.1419 -0.108963 0)
(-0.148442 -0.15554 0)
(-0.156138 -0.208465 0)
(-0.15902 -0.265814 0)
(-0.146711 -0.30807 0)
(-0.112224 -0.277162 0)
(-0.0309528 -0.0753254 0)
(-0.00272665 0.0935787 0)
(-0.0204031 0.165585 0)
(-0.0451228 0.20553 0)
(-0.0663042 0.228505 0)
(-0.0815608 0.229461 0)
(-0.0900392 0.209476 0)
(-0.0936552 0.17573 0)
(-0.0945474 0.135704 0)
(-0.0948043 0.0943807 0)
(-0.095583 0.0539779 0)
(-0.0969227 0.0145935 0)
(-0.0987299 -0.0245244 0)
(-0.101172 -0.0641165 0)
(-0.104755 -0.104843 0)
(-0.110625 -0.148304 0)
(-0.119517 -0.198433 0)
(-0.128298 -0.259693 0)
(-0.126494 -0.323385 0)
(-0.107457 -0.334704 0)
(-0.0373379 -0.163392 0)
(0.00122008 0.102715 0)
(-0.0089342 0.183414 0)
(-0.0256256 0.223074 0)
(-0.0396146 0.242678 0)
(-0.0490852 0.239437 0)
(-0.0539485 0.215464 0)
(-0.055905 0.178711 0)
(-0.0566021 0.137024 0)
(-0.0575476 0.0952932 0)
(-0.0592777 0.0552027 0)
(-0.0615631 0.0163008 0)
(-0.0642601 -0.0224331 0)
(-0.0673606 -0.0616155 0)
(-0.0710438 -0.101455 0)
(-0.0762429 -0.14263 0)
(-0.084529 -0.188776 0)
(-0.096022 -0.248233 0)
(-0.100631 -0.324239 0)
(-0.0951586 -0.372164 0)
(-0.0309176 -0.242525 0)
(0.00511547 0.103878 0)
(0.00295846 0.193006 0)
(-0.00538254 0.233561 0)
(-0.0124934 0.250703 0)
(-0.0168789 0.244612 0)
(-0.0187603 0.218394 0)
(-0.019441 0.180334 0)
(-0.0199605 0.138268 0)
(-0.0212511 0.0968356 0)
(-0.0234817 0.0573424 0)
(-0.0263668 0.0190638 0)
(-0.0298471 -0.0191146 0)
(-0.0339388 -0.057857 0)
(-0.0385823 -0.0972231 0)
(-0.0443248 -0.137139 0)
(-0.0523969 -0.180001 0)
(-0.0657299 -0.235509 0)
(-0.0742121 -0.318004 0)
(-0.0811923 -0.396662 0)
(-0.0229397 -0.307074 0)
(0.00845018 0.0974064 0)
(0.0142115 0.193996 0)
(0.0140954 0.237081 0)
(0.0137021 0.25348 0)
(0.0143255 0.246393 0)
(0.0155231 0.219684 0)
(0.0163837 0.181637 0)
(0.0164386 0.139932 0)
(0.0153005 0.0990175 0)
(0.0130218 0.0601363 0)
(0.00985358 0.0226007 0)
(0.00574809 -0.0147071 0)
(0.000562364 -0.0525806 0)
(-0.00555655 -0.091124 0)
(-0.0130172 -0.129972 0)
(-0.0219636 -0.170134 0)
(-0.0377078 -0.22054 0)
(-0.0487358 -0.304359 0)
(-0.0679068 -0.408408 0)
(-0.0144603 -0.359955 0)
(0.0103176 0.0844383 0)
(0.0233987 0.186405 0)
(0.0310574 0.233206 0)
(0.036983 0.250027 0)
(0.0426404 0.24318 0)
(0.0475904 0.217394 0)
(0.0510224 0.180635 0)
(0.052692 0.140239 0)
(0.0525533 0.100502 0)
(0.0508167 0.0627349 0)
(0.0477028 0.0264279 0)
(0.0430965 -0.00948275 0)
(0.0368304 -0.0458959 0)
(0.029026 -0.0829744 0)
(0.0188866 -0.120355 0)
(0.00757311 -0.158272 0)
(-0.0118322 -0.204248 0)
(-0.024262 -0.286359 0)
(-0.0558558 -0.41092 0)
(-0.00614139 -0.401809 0)
(0.00986523 0.0672055 0)
(0.0290012 0.170608 0)
(0.0443162 0.222124 0)
(0.0568493 0.241201 0)
(0.0681338 0.236265 0)
(0.0778113 0.212902 0)
(0.0850223 0.178613 0)
(0.0894657 0.140284 0)
(0.0912185 0.102147 0)
(0.0905824 0.0657483 0)
(0.0878897 0.0309492 0)
(0.0828411 -0.00327171 0)
(0.0753347 -0.0374562 0)
(0.0656558 -0.0721858 0)
(0.0524252 -0.107269 0)
(0.0375121 -0.142591 0)
(0.0130909 -0.184086 0)
(4.35e-05 -0.263126 0)
(-0.0448167 -0.40663 0)
(0.00275924 -0.4362 0)
(0.00692028 0.0493888 0)
(0.0293323 0.148904 0)
(0.0510638 0.203548 0)
(0.0699285 0.224446 0)
(0.0873914 0.22158 0)
(0.103073 0.201421 0)
(0.115729 0.170832 0)
(0.124678 0.135954 0)
(0.129835 0.100778 0)
(0.131442 0.0669829 0)
(0.129769 0.0348172 0)
(0.124844 0.00345451 0)
(0.11622 -0.0273929 0)
(0.104502 -0.0585867 0)
(0.0874326 -0.0901734 0)
(0.0682677 -0.122767 0)
(0.0382326 -0.16069 0)
(0.0238162 -0.23704 0)
(-0.0344637 -0.39889 0)
(0.0134654 -0.464377 0)
(0.00238337 0.0346359 0)
(0.0236129 0.123861 0)
(0.0509072 0.179876 0)
(0.0766203 0.202852 0)
(0.101268 0.20253 0)
(0.124134 0.186128 0)
(0.14357 0.160076 0)
(0.158361 0.129657 0)
(0.168089 0.0984837 0)
(0.172965 0.0682452 0)
(0.17293 0.0395374 0)
(0.168699 0.0119527 0)
(0.15887 -0.0148558 0)
(0.14515 -0.0416238 0)
(0.123873 -0.068636 0)
(0.10036 -0.0974178 0)
(0.0645392 -0.132573 0)
(0.0469598 -0.207364 0)
(-0.0227325 -0.387033 0)
(0.0285193 -0.485525 0)
(-0.00342383 0.0286361 0)
(0.0100523 0.101487 0)
(0.0370663 0.148644 0)
(0.0689093 0.169387 0)
(0.101783 0.170596 0)
(0.133482 0.158303 0)
(0.161459 0.137873 0)
(0.183984 0.11348 0)
(0.200015 0.0882089 0)
(0.209923 0.0635889 0)
(0.212838 0.0403648 0)
(0.210579 0.0184163 0)
(0.200322 -0.00263168 0)
(0.185704 -0.0232418 0)
(0.160914 -0.0438868 0)
(0.134327 -0.0676369 0)
(0.0928341 -0.101588 0)
(0.06983 -0.179938 0)
(-0.00439337 -0.370021 0)
(0.0521484 -0.491625 0)
(-0.013997 0.0185391 0)
(-0.00751368 0.0881812 0)
(0.0191927 0.124169 0)
(0.0563998 0.137273 0)
(0.0975267 0.136852 0)
(0.137883 0.127665 0)
(0.174111 0.11301 0)
(0.203931 0.0952386 0)
(0.225807 0.0767776 0)
(0.240883 0.0586436 0)
(0.246909 0.04179 0)
(0.247821 0.0261152 0)
(0.238492 0.0117731 0)
(0.226688 -0.00200215 0)
(0.201716 -0.016028 0)
(0.177767 -0.0349586 0)
(0.13346 -0.0677381 0)
(0.107792 -0.145965 0)
(0.0374512 -0.326115 0)
(0.0923589 -0.45587 0)
(-0.106009 0.0824334 0)
(-0.0777499 0.0690045 0)
(-0.0485695 0.0733615 0)
(0.00375816 0.077867 0)
(0.0572477 0.078192 0)
(0.109953 0.0739241 0)
(0.157096 0.0665899 0)
(0.199434 0.0571895 0)
(0.231527 0.047521 0)
(0.259663 0.0378732 0)
(0.275385 0.0292168 0)
(0.290538 0.0212407 0)
(0.2909 0.0144934 0)
(0.295025 0.00811717 0)
(0.278751 0.00115597 0)
(0.271564 -0.00998213 0)
(0.232281 -0.0355415 0)
(0.218116 -0.0954079 0)
(0.150204 -0.229723 0)
(0.170671 -0.341459 0)
(0.129975 0.103748 0)
(0.158332 0.0752388 0)
(0.212185 0.0532403 0)
(0.270693 0.041633 0)
(0.323261 0.0359198 0)
(0.375689 0.0319521 0)
(0.420267 0.0289181 0)
(0.465569 0.0255817 0)
(0.49865 0.022904 0)
(0.533889 0.0197123 0)
(0.553322 0.0175509 0)
(0.579131 0.0146143 0)
(0.585274 0.0131711 0)
(0.603623 0.0103533 0)
(0.595058 0.0093918 0)
(0.603576 0.00500715 0)
(0.567784 9.50251e-05 0)
(0.547623 -0.0183126 0)
(0.435709 -0.0504146 0)
(0.336762 -0.101388 0)
)
;

boundaryField
{
    movingWall
    {
        type            fixedValue;
        value           uniform (1 0 0);
    }
    fixedWalls
    {
        type            noSlip;
    }
    frontAndBack
    {
        type            empty;
    }
}


// ************************************************************************* //
