/*--------------------------------*- C++ -*----------------------------------*\
| =========                 |                                                 |
| \\      /  F ield         | OpenFOAM: The Open Source CFD Toolbox           |
|  \\    /   O peration     | Version:  2212                                  |
|   \\  /    A nd           | Website:  www.openfoam.com                      |
|    \\/     M anipulation  |                                                 |
\*---------------------------------------------------------------------------*/
FoamFile
{
    version     2.0;
    format      ascii;
    arch        "LSB;label=32;scalar=64";
    class       volScalarField;
    location    "20.1";
    object      T;
}
// * * * * * * * * * * * * * * * * * * * * * * * * * * * * * * * * * * * * * //

dimensions      [0 0 0 1 0 0 0];

internalField   nonuniform List<scalar> 
400
(
0.985562
0.985864
0.986473
0.987376
0.988431
0.989398
0.990094
0.990503
0.990726
0.990878
0.991017
0.99116
0.991315
0.991475
0.991616
0.991698
0.991657
0.991425
0.991039
0.990723
0.985946
0.986315
0.987054
0.988112
0.989236
0.990068
0.990478
0.990622
0.990671
0.990708
0.990785
0.990932
0.991161
0.991457
0.991763
0.991987
0.991991
0.991669
0.991161
0.990795
0.986544
0.987041
0.987961
0.989072
0.989948
0.99032
0.990303
0.990118
0.989889
0.989715
0.989685
0.98986
0.990242
0.99082
0.991489
0.992098
0.992393
0.992119
0.991384
0.990929
0.98713
0.987758
0.988764
0.989663
0.990044
0.989865
0.98936
0.988717
0.988083
0.987614
0.987431
0.987634
0.988197
0.989134
0.990315
0.991558
0.992525
0.99277
0.991958
0.991242
0.98758
0.988284
0.989209
0.989704
0.989496
0.988718
0.987632
0.986436
0.985343
0.984546
0.984186
0.98438
0.985098
0.986365
0.988066
0.990016
0.991875
0.993117
0.992986
0.991821
0.987875
0.988573
0.989283
0.989283
0.98846
0.987063
0.985371
0.983634
0.982119
0.981031
0.980515
0.980664
0.981476
0.982964
0.985054
0.987587
0.990263
0.992588
0.993748
0.992667
0.988036
0.988657
0.989074
0.988568
0.987171
0.985201
0.982968
0.980787
0.978956
0.977675
0.977065
0.977173
0.978015
0.979596
0.981888
0.984794
0.988069
0.991257
0.993626
0.993882
0.988101
0.988609
0.988732
0.987783
0.985892
0.983432
0.980766
0.978263
0.976232
0.974854
0.974207
0.974298
0.975132
0.976706
0.979026
0.982083
0.985743
0.989595
0.99288
0.994531
0.988101
0.988488
0.988353
0.987049
0.984775
0.98195
0.97898
0.97627
0.974126
0.972701
0.972039
0.972124
0.97294
0.974469
0.976715
0.979731
0.983552
0.987904
0.991925
0.994234
0.98806
0.988348
0.988037
0.986511
0.98399
0.980923
0.977754
0.974911
0.972692
0.971228
0.970539
0.970605
0.971402
0.972892
0.975046
0.977916
0.981686
0.98634
0.99106
0.994008
0.987993
0.988212
0.987804
0.986172
0.983532
0.980354
0.977103
0.974203
0.97194
0.970431
0.969692
0.969709
0.970465
0.971913
0.973985
0.97668
0.980249
0.984985
0.990256
0.993864
0.987907
0.988096
0.987685
0.986092
0.983485
0.98033
0.977095
0.974194
0.971902
0.970339
0.969531
0.969472
0.970149
0.971519
0.973492
0.975998
0.979273
0.983915
0.989612
0.993785
0.9878
0.987991
0.987641
0.98619
0.983742
0.980737
0.97763
0.974814
0.972553
0.970971
0.970102
0.969951
0.970511
0.971745
0.973559
0.975845
0.978761
0.983131
0.989105
0.993777
0.987667
0.98789
0.987667
0.986473
0.98433
0.981617
0.978758
0.976118
0.973946
0.972374
0.971453
0.971186
0.971585
0.97261
0.974182
0.976178
0.978688
0.982676
0.988777
0.993825
0.987492
0.987765
0.987667
0.986754
0.98499
0.98268
0.980197
0.977861
0.975894
0.974422
0.973505
0.973145
0.973358
0.974115
0.975355
0.976993
0.979069
0.982545
0.988607
0.993931
0.987286
0.98762
0.987685
0.987101
0.985798
0.983996
0.981995
0.980062
0.978386
0.977078
0.976198
0.975756
0.975756
0.976193
0.977029
0.978224
0.97983
0.982688
0.988602
0.994098
0.98708
0.987409
0.987527
0.987182
0.986305
0.985041
0.983599
0.982174
0.980904
0.979875
0.979125
0.978675
0.978513
0.978654
0.979097
0.979837
0.981021
0.983334
0.988948
0.994383
0.986935
0.987337
0.987579
0.987436
0.98694
0.986176
0.985267
0.984331
0.983456
0.982705
0.982104
0.981678
0.981426
0.981364
0.981531
0.981911
0.982781
0.984558
0.989594
0.994742
0.98496
0.986893
0.986883
0.986809
0.986541
0.986186
0.985782
0.985406
0.985062
0.984807
0.98462
0.984535
0.984539
0.984626
0.984861
0.985163
0.985937
0.987286
0.991103
0.995357
0.989437
0.990713
0.991396
0.991804
0.992022
0.992157
0.992228
0.9923
0.99235
0.99243
0.992501
0.992609
0.992709
0.992845
0.992977
0.99316
0.993395
0.993889
0.994877
0.996615
)
;

boundaryField
{
    movingWall
    {
        type            fixedValue;
        value           uniform 1;
    }
    fixedWalls
    {
        type            zeroGradient;
    }
    frontAndBack
    {
        type            empty;
    }
}


// ************************************************************************* //
