/*--------------------------------*- C++ -*----------------------------------*\
| =========                 |                                                 |
| \\      /  F ield         | OpenFOAM: The Open Source CFD Toolbox           |
|  \\    /   O peration     | Version:  2212                                  |
|   \\  /    A nd           | Website:  www.openfoam.com                      |
|    \\/     M anipulation  |                                                 |
\*---------------------------------------------------------------------------*/
FoamFile
{
    version     2.0;
    format      ascii;
    arch        "LSB;label=32;scalar=64";
    class       surfaceScalarField;
    location    "0.5";
    object      phi;
}
// * * * * * * * * * * * * * * * * * * * * * * * * * * * * * * * * * * * * * //

dimensions      [0 3 -1 0 0 0 0];

oriented        oriented;

internalField   nonuniform List<scalar> 
760
(
-3.23769e-08
3.23766e-08
-1.06672e-07
7.42956e-08
-1.977e-07
9.10275e-08
-2.9408e-07
9.63806e-08
-3.92585e-07
9.85048e-08
-4.92376e-07
9.97904e-08
-5.92496e-07
1.0012e-07
-6.90886e-07
9.83903e-08
-7.83844e-07
9.29579e-08
-8.65593e-07
8.17489e-08
-9.2801e-07
6.24171e-08
-9.60771e-07
3.2761e-08
-9.51961e-07
-8.81039e-09
-8.90884e-07
-6.10767e-08
-7.71912e-07
-1.18972e-07
-6.00072e-07
-1.7184e-07
-3.95511e-07
-2.04561e-07
-1.94532e-07
-2.00978e-07
-4.61206e-08
-1.48412e-07
-4.61205e-08
-8.1593e-08
1.1397e-07
-2.32409e-07
2.25112e-07
-4.1075e-07
2.69369e-07
-5.98711e-07
2.84342e-07
-7.892e-07
2.88993e-07
-9.7885e-07
2.8944e-07
-1.1644e-06
2.8567e-07
-1.34103e-06
2.75022e-07
-1.5015e-06
2.53428e-07
-1.63557e-06
2.15817e-07
-1.72983e-06
1.56674e-07
-1.76824e-06
7.11796e-08
-1.73384e-06
-4.32133e-08
-1.61028e-06
-1.84635e-07
-1.39123e-06
-3.38024e-07
-1.08622e-06
-4.76852e-07
-7.28654e-07
-5.62126e-07
-3.77696e-07
-5.51937e-07
-1.08946e-07
-4.17162e-07
-1.55067e-07
-1.06921e-07
2.2089e-07
-2.96936e-07
4.15127e-07
-5.18161e-07
4.90594e-07
-7.49609e-07
5.15789e-07
-9.82862e-07
5.22247e-07
-1.21369e-06
5.20268e-07
-1.43808e-06
5.1006e-07
-1.65046e-06
4.87398e-07
-1.8427e-06
4.4567e-07
-2.00343e-06
3.76548e-07
-2.11755e-06
2.70789e-07
-2.1665e-06
1.20132e-07
-2.1289e-06
-8.08146e-08
-1.98312e-06
-3.30416e-07
-1.71676e-06
-6.04385e-07
-1.33739e-06
-8.56216e-07
-8.86683e-07
-1.01284e-06
-4.46586e-07
-9.92033e-07
-1.21176e-07
-7.42572e-07
-2.76243e-07
-1.17396e-07
3.38286e-07
-3.25997e-07
6.23729e-07
-5.67851e-07
7.32448e-07
-8.2029e-07
7.68228e-07
-1.07487e-06
7.76828e-07
-1.32783e-06
7.73229e-07
-1.57584e-06
7.5807e-07
-1.81415e-06
7.25706e-07
-2.03546e-06
6.66978e-07
-2.22881e-06
5.69907e-07
-2.37842e-06
4.20394e-07
-2.46282e-06
2.04533e-07
-2.45547e-06
-8.81673e-08
-2.32122e-06
-4.64662e-07
-2.03284e-06
-8.92761e-07
-1.58604e-06
-1.30302e-06
-1.02848e-06
-1.5704e-06
-4.81281e-07
-1.53923e-06
-1.05485e-07
-1.11837e-06
-3.81728e-07
-1.20563e-07
4.5885e-07
-3.36914e-07
8.40079e-07
-5.8842e-07
9.83955e-07
-8.51731e-07
1.03154e-06
-1.11907e-06
1.04417e-06
-1.38801e-06
1.04217e-06
-1.65697e-06
1.02703e-06
-1.92332e-06
9.92054e-07
-2.18203e-06
9.25685e-07
-2.42407e-06
8.11949e-07
-2.63416e-06
6.30484e-07
-2.78746e-06
3.57833e-07
-2.85352e-06
-2.21015e-08
-2.77328e-06
-5.44907e-07
-2.49219e-06
-1.17385e-06
-1.97347e-06
-1.82175e-06
-1.25916e-06
-2.2847e-06
-5.32985e-07
-2.26541e-06
-7.22211e-08
-1.57913e-06
-4.53949e-07
-1.20128e-07
5.78977e-07
-3.38753e-07
1.0587e-06
-5.94503e-07
1.2397e-06
-8.63953e-07
1.30099e-06
-1.14041e-06
1.32063e-06
-1.42338e-06
1.32513e-06
-1.71393e-06
1.31758e-06
-2.01282e-06
1.29095e-06
-2.31911e-06
1.23197e-06
-2.62812e-06
1.12097e-06
-2.9284e-06
9.30758e-07
-3.19675e-06
6.26186e-07
-3.38985e-06
1.71002e-07
-3.44164e-06
-4.93125e-07
-3.23529e-06
-1.38019e-06
-2.66288e-06
-2.39416e-06
-1.7259e-06
-3.22168e-06
-6.9003e-07
-3.30128e-06
-4.1388e-08
-2.22777e-06
-4.95337e-07
-1.17571e-07
6.96549e-07
-3.35315e-07
1.27645e-06
-5.92023e-07
1.49641e-06
-8.6442e-07
1.57339e-06
-1.14708e-06
1.60329e-06
-1.44184e-06
1.61989e-06
-1.75321e-06
1.62895e-06
-2.08671e-06
1.62445e-06
-2.4477e-06
1.59296e-06
-2.8396e-06
1.51286e-06
-3.2608e-06
1.35196e-06
-3.69858e-06
1.06396e-06
-4.11054e-06
5.82962e-07
-4.42382e-06
-1.79847e-07
-4.42749e-06
-1.37651e-06
-3.88049e-06
-2.94116e-06
-2.68252e-06
-4.41965e-06
-1.17039e-06
-4.81341e-06
-9.1069e-08
-3.3071e-06
-5.86406e-07
-1.13373e-07
8.09922e-07
-3.27803e-07
1.49088e-06
-5.82534e-07
1.75114e-06
-8.54302e-07
1.84515e-06
-1.13889e-06
1.88788e-06
-1.44061e-06
1.9216e-06
-1.76794e-06
1.95628e-06
-2.13235e-06
1.98887e-06
-2.5481e-06
2.0087e-06
-3.03169e-06
1.99646e-06
-3.6009e-06
1.92117e-06
-4.26975e-06
1.7328e-06
-5.02037e-06
1.33358e-06
-5.74059e-06
5.40373e-07
-6.14204e-06
-9.7506e-07
-5.76514e-06
-3.31806e-06
-4.39236e-06
-5.79244e-06
-2.34366e-06
-6.8621e-06
-4.46981e-07
-5.20378e-06
-1.03339e-06
-1.0778e-07
9.17702e-07
-3.16692e-07
1.69979e-06
-5.66221e-07
2.00067e-06
-8.32656e-07
2.11159e-06
-1.11263e-06
2.16785e-06
-1.41272e-06
2.22169e-06
-1.74534e-06
2.2889e-06
-2.12846e-06
2.372e-06
-2.58711e-06
2.46735e-06
-3.15553e-06
2.56487e-06
-3.87909e-06
2.64474e-06
-4.81074e-06
2.66445e-06
-5.96765e-06
2.49049e-06
-7.17739e-06
1.75011e-06
-8.04314e-06
-1.09309e-07
-7.96363e-06
-3.39758e-06
-6.71952e-06
-7.03654e-06
-4.39384e-06
-9.18778e-06
-1.42233e-06
-8.1753e-06
-2.45571e-06
-1.01335e-07
1.01904e-06
-3.02991e-07
1.90145e-06
-5.43904e-07
2.24159e-06
-7.99166e-07
2.36685e-06
-1.06562e-06
2.43431e-06
-1.35138e-06
2.50745e-06
-1.6719e-06
2.60942e-06
-2.05064e-06
2.75074e-06
-2.52266e-06
2.93938e-06
-3.14031e-06
3.18252e-06
-3.97665e-06
3.48107e-06
-5.10985e-06
3.79765e-06
-6.54884e-06
3.92948e-06
-8.0803e-06
3.28158e-06
-9.14548e-06
9.55872e-07
-9.4e-06
-3.14305e-06
-8.66225e-06
-7.77429e-06
-6.611e-06
-1.1239e-05
-2.96183e-06
-1.18245e-05
-5.41754e-06
-9.52837e-08
1.11432e-06
-2.8918e-07
2.09534e-06
-5.18465e-07
2.47087e-06
-7.56088e-07
2.60447e-06
-9.98319e-07
2.67654e-06
-1.2536e-06
2.76274e-06
-1.53838e-06
2.89419e-06
-1.87811e-06
3.09047e-06
-2.31189e-06
3.37316e-06
-2.89928e-06
3.76991e-06
-3.72003e-06
4.30183e-06
-4.83757e-06
4.91519e-06
-6.2019e-06
5.2938e-06
-7.55535e-06
4.63503e-06
-8.53433e-06
1.93485e-06
-8.93078e-06
-2.74661e-06
-8.77999e-06
-7.92508e-06
-7.53928e-06
-1.24797e-05
-4.37667e-06
-1.49871e-05
-9.79421e-06
-9.19958e-08
1.20632e-06
-2.80055e-07
2.2834e-06
-4.9597e-07
2.68679e-06
-7.09692e-07
2.8182e-06
-9.16396e-07
2.88324e-06
-1.12356e-06
2.9699e-06
-1.34569e-06
3.11632e-06
-1.60466e-06
3.34943e-06
-1.9328e-06
3.70131e-06
-2.37618e-06
4.21329e-06
-2.98798e-06
4.91363e-06
-3.78673e-06
5.71395e-06
-4.67954e-06
6.18661e-06
-5.47442e-06
5.42991e-06
-6.11092e-06
2.57135e-06
-6.59496e-06
-2.26257e-06
-6.93304e-06
-7.587e-06
-6.63294e-06
-1.27798e-05
-4.50655e-06
-1.71135e-05
-1.43008e-05
-9.53849e-08
1.3017e-06
-2.83512e-07
2.47153e-06
-4.86706e-07
2.88998e-06
-6.71384e-07
3.00287e-06
-8.32166e-07
3.04403e-06
-9.75073e-07
3.11281e-06
-1.11015e-06
3.25139e-06
-1.25024e-06
3.48952e-06
-1.41109e-06
3.86216e-06
-1.60916e-06
4.41136e-06
-1.85248e-06
5.15694e-06
-2.12993e-06
5.9914e-06
-2.39579e-06
6.45246e-06
-2.6156e-06
5.64972e-06
-2.92831e-06
2.88406e-06
-3.47428e-06
-1.71659e-06
-4.21117e-06
-6.8501e-06
-4.7305e-06
-1.22605e-05
-3.57901e-06
-1.8265e-05
-1.78798e-05
-1.12371e-07
1.41407e-06
-3.1211e-07
2.67127e-06
-5.05203e-07
3.08307e-06
-6.56652e-07
3.15432e-06
-7.63441e-07
3.15082e-06
-8.30943e-07
3.18031e-06
-8.63886e-07
3.28434e-06
-8.6411e-07
3.48975e-06
-8.28554e-07
3.8266e-06
-7.45232e-07
4.32804e-06
-5.77805e-07
4.98952e-06
-3.20941e-07
5.73454e-06
-3.15696e-08
6.16309e-06
1.11832e-07
5.50632e-06
5.49154e-08
2.94098e-06
-4.71063e-07
-1.19062e-06
-1.50428e-06
-5.81689e-06
-2.70139e-06
-1.10634e-05
-2.48116e-06
-1.84852e-05
-2.03609e-05
-1.52962e-07
1.56703e-06
-3.84934e-07
2.90324e-06
-5.75785e-07
3.27392e-06
-6.8973e-07
3.26827e-06
-7.34816e-07
3.1959e-06
-7.2069e-07
3.16618e-06
-6.4811e-07
3.21176e-06
-5.09007e-07
3.35064e-06
-2.85005e-07
3.6026e-06
6.82257e-08
3.97481e-06
5.60726e-07
4.49702e-06
1.23463e-06
5.06064e-06
2.02677e-06
5.37095e-06
2.70075e-06
4.83234e-06
2.82014e-06
2.82158e-06
2.15737e-06
-5.27847e-07
8.90038e-07
-4.54956e-06
-7.80394e-07
-9.39298e-06
-1.46741e-06
-1.77982e-05
-2.18283e-05
-2.34117e-07
1.80115e-06
-5.24048e-07
3.19317e-06
-7.08977e-07
3.45885e-06
-7.79398e-07
3.33869e-06
-7.60494e-07
3.177e-06
-6.67007e-07
3.0727e-06
-4.98036e-07
3.04279e-06
-2.39353e-07
3.09196e-06
1.35828e-07
3.22742e-06
6.48528e-07
3.4621e-06
1.35768e-06
3.78787e-06
2.28253e-06
4.13578e-06
3.33937e-06
4.31412e-06
4.2425e-06
3.92921e-06
4.52367e-06
2.5404e-06
3.92826e-06
6.75647e-08
2.44939e-06
-3.07068e-06
5.3554e-07
-7.47913e-06
-5.12853e-07
-1.67498e-05
-2.23412e-05
-4.13802e-07
2.21495e-06
-8.60105e-07
3.63947e-06
-1.01498e-06
3.61373e-06
-9.80131e-07
3.30384e-06
-8.63707e-07
3.06057e-06
-6.87632e-07
2.89662e-06
-4.38842e-07
2.794e-06
-9.23804e-08
2.7455e-06
3.78599e-07
2.75644e-06
1.00986e-06
2.83084e-06
1.83067e-06
2.96706e-06
2.84997e-06
3.11649e-06
3.97044e-06
3.19364e-06
4.94734e-06
2.95232e-06
5.31972e-06
2.16802e-06
4.85073e-06
5.36559e-07
3.42465e-06
-1.6446e-06
1.75015e-06
-5.80463e-06
3.81223e-07
-1.53808e-05
-2.196e-05
-4.15326e-07
2.63028e-06
-9.47516e-07
4.17166e-06
-1.20817e-06
3.87438e-06
-1.24939e-06
3.34506e-06
-1.12847e-06
2.93965e-06
-8.90421e-07
2.65858e-06
-5.45455e-07
2.44903e-06
-8.3452e-08
2.2835e-06
4.99349e-07
2.17364e-06
1.22715e-06
2.10304e-06
2.10207e-06
2.09214e-06
3.13295e-06
2.0856e-06
4.22644e-06
2.10015e-06
5.21379e-06
1.96497e-06
5.73776e-06
1.64406e-06
5.53629e-06
7.3803e-07
4.75705e-06
-8.65359e-07
3.54751e-06
-4.5951e-06
1.65131e-06
-1.34846e-05
-2.03087e-05
-3.92735e-06
6.55763e-06
-3.7694e-06
4.01371e-06
-2.6037e-06
2.70868e-06
-1.47317e-06
2.21453e-06
-4.37937e-07
1.90441e-06
5.68023e-07
1.65262e-06
1.55954e-06
1.45752e-06
2.55135e-06
1.29168e-06
3.54164e-06
1.18335e-06
4.55904e-06
1.08564e-06
5.60358e-06
1.04759e-06
6.69029e-06
9.98901e-07
7.77848e-06
1.01195e-06
8.795e-06
9.48448e-07
9.63244e-06
8.06613e-07
1.00206e-05
3.49847e-07
9.86042e-06
-7.05153e-07
9.05219e-06
-3.78686e-06
5.23501e-06
-9.66746e-06
-1.50737e-05
6.55763e-06
1.05713e-05
1.328e-05
1.54946e-05
1.7399e-05
1.90516e-05
2.05091e-05
2.18008e-05
2.29841e-05
2.40698e-05
2.51174e-05
2.61163e-05
2.71282e-05
2.80767e-05
2.88833e-05
2.92331e-05
2.8528e-05
2.47411e-05
1.50737e-05
)
;

boundaryField
{
    movingWall
    {
        type            calculated;
        value           uniform 0;
    }
    fixedWalls
    {
        type            calculated;
        value           uniform 0;
    }
    frontAndBack
    {
        type            empty;
        value           nonuniform List<scalar> 0();
    }
}


// ************************************************************************* //
