/*--------------------------------*- C++ -*----------------------------------*\
| =========                 |                                                 |
| \\      /  F ield         | OpenFOAM: The Open Source CFD Toolbox           |
|  \\    /   O peration     | Version:  2212                                  |
|   \\  /    A nd           | Website:  www.openfoam.com                      |
|    \\/     M anipulation  |                                                 |
\*---------------------------------------------------------------------------*/
FoamFile
{
    version     2.0;
    format      ascii;
    arch        "LSB;label=32;scalar=64";
    class       volScalarField;
    location    "19.1";
    object      T;
}
// * * * * * * * * * * * * * * * * * * * * * * * * * * * * * * * * * * * * * //

dimensions      [0 0 0 1 0 0 0];

internalField   nonuniform List<scalar> 
400
(
0.982509
0.982874
0.983614
0.984709
0.985988
0.98716
0.988005
0.9885
0.98877
0.988954
0.989122
0.989296
0.989483
0.989676
0.989847
0.989947
0.989897
0.989615
0.989147
0.988764
0.982974
0.983422
0.984317
0.985601
0.986964
0.987972
0.98847
0.988645
0.988704
0.988749
0.988842
0.98902
0.989296
0.989656
0.990025
0.990297
0.990301
0.989911
0.989295
0.988852
0.9837
0.984302
0.985418
0.986765
0.987827
0.988278
0.988258
0.988035
0.987757
0.987546
0.98751
0.987722
0.988185
0.988884
0.989695
0.990432
0.990788
0.990456
0.989566
0.989014
0.984411
0.985173
0.986391
0.987482
0.987945
0.987728
0.987116
0.986338
0.985571
0.985003
0.984781
0.985027
0.985709
0.986843
0.988273
0.989778
0.990948
0.991245
0.990261
0.989393
0.984957
0.98581
0.986931
0.987533
0.987281
0.986339
0.985024
0.983576
0.982253
0.981288
0.980853
0.981088
0.981958
0.983491
0.98555
0.987912
0.990162
0.991665
0.991506
0.990094
0.985315
0.986161
0.987023
0.987023
0.986027
0.984336
0.982287
0.980184
0.97835
0.977034
0.976409
0.976589
0.977572
0.979373
0.981903
0.98497
0.98821
0.991025
0.992429
0.99112
0.98551
0.986263
0.986769
0.986158
0.984467
0.982082
0.979379
0.976738
0.974521
0.972971
0.972232
0.972363
0.973382
0.975296
0.978071
0.981589
0.985554
0.989413
0.992281
0.992591
0.985589
0.986205
0.986356
0.985207
0.982918
0.97994
0.976712
0.973682
0.971224
0.969556
0.968772
0.968883
0.969892
0.971798
0.974606
0.978307
0.982738
0.987401
0.991379
0.993378
0.985589
0.986059
0.985897
0.984319
0.981566
0.978146
0.974551
0.97127
0.968675
0.96695
0.966148
0.966251
0.967239
0.96909
0.971808
0.97546
0.980085
0.985355
0.990222
0.993018
0.98554
0.985889
0.985515
0.983668
0.980615
0.976903
0.973067
0.969625
0.966939
0.965167
0.964333
0.964412
0.965377
0.967181
0.969788
0.973263
0.977826
0.983461
0.989175
0.992745
0.985458
0.985725
0.985233
0.983258
0.980061
0.976214
0.972278
0.968768
0.966028
0.964202
0.963307
0.963328
0.964243
0.965996
0.968504
0.971766
0.976086
0.981821
0.988202
0.99257
0.985354
0.985584
0.985089
0.98316
0.980004
0.976185
0.972268
0.968756
0.965983
0.964091
0.963112
0.963041
0.963861
0.965519
0.967907
0.97094
0.974905
0.980524
0.987422
0.992475
0.985226
0.985457
0.985035
0.983278
0.980315
0.976677
0.972916
0.969508
0.966771
0.964855
0.963804
0.96362
0.964299
0.965792
0.967988
0.970756
0.974285
0.979576
0.986808
0.992464
0.985064
0.985335
0.985066
0.983622
0.981027
0.977742
0.974282
0.971086
0.968457
0.966554
0.965439
0.965116
0.965599
0.96684
0.968742
0.971158
0.974197
0.979025
0.986411
0.992522
0.984852
0.985183
0.985065
0.983961
0.981826
0.979029
0.976023
0.973195
0.970815
0.969033
0.967923
0.967486
0.967745
0.968661
0.970162
0.972145
0.974659
0.978867
0.986205
0.992651
0.984602
0.985008
0.985087
0.984381
0.982804
0.980622
0.9782
0.97586
0.973831
0.972248
0.971183
0.970647
0.970648
0.971177
0.972188
0.973635
0.97558
0.979039
0.986199
0.992854
0.984353
0.984752
0.984896
0.984478
0.983418
0.981887
0.980142
0.978417
0.97688
0.975634
0.974726
0.974182
0.973985
0.974156
0.974693
0.975588
0.97702
0.979822
0.986618
0.993199
0.984177
0.984664
0.984958
0.984786
0.984186
0.983261
0.982161
0.981028
0.979968
0.97906
0.978332
0.977817
0.977512
0.977436
0.977638
0.978099
0.979151
0.981303
0.987401
0.993633
0.981786
0.984127
0.984115
0.984027
0.983703
0.983274
0.982784
0.98233
0.981912
0.981604
0.981378
0.981275
0.98128
0.981385
0.98167
0.982036
0.982973
0.984606
0.989228
0.994378
0.987208
0.988753
0.98958
0.990075
0.990338
0.990503
0.990588
0.990676
0.990737
0.990834
0.99092
0.99105
0.991171
0.991337
0.991497
0.991718
0.992002
0.992601
0.993797
0.995901
)
;

boundaryField
{
    movingWall
    {
        type            fixedValue;
        value           uniform 1;
    }
    fixedWalls
    {
        type            zeroGradient;
    }
    frontAndBack
    {
        type            empty;
    }
}


// ************************************************************************* //
