/*--------------------------------*- C++ -*----------------------------------*\
| =========                 |                                                 |
| \\      /  F ield         | OpenFOAM: The Open Source CFD Toolbox           |
|  \\    /   O peration     | Version:  2212                                  |
|   \\  /    A nd           | Website:  www.openfoam.com                      |
|    \\/     M anipulation  |                                                 |
\*---------------------------------------------------------------------------*/
FoamFile
{
    version     2.0;
    format      ascii;
    arch        "LSB;label=32;scalar=64";
    class       volScalarField;
    location    "7.8";
    object      T;
}
// * * * * * * * * * * * * * * * * * * * * * * * * * * * * * * * * * * * * * //

dimensions      [0 0 0 1 0 0 0];

internalField   nonuniform List<scalar> 
400
(
0.816967
0.822001
0.832138
0.846971
0.863936
0.878941
0.889177
0.894684
0.897384
0.899109
0.900609
0.902087
0.9036
0.905072
0.906227
0.906595
0.905403
0.901744
0.895979
0.89124
0.82363
0.829673
0.841736
0.85881
0.876459
0.888968
0.894779
0.896801
0.897625
0.898233
0.899169
0.900747
0.90306
0.905947
0.908749
0.910443
0.909462
0.904582
0.897376
0.892083
0.833931
0.841873
0.856593
0.874147
0.887729
0.893572
0.894089
0.892656
0.890642
0.889098
0.888941
0.890809
0.894729
0.900558
0.907171
0.91287
0.914798
0.91004
0.899946
0.893629
0.843966
0.853873
0.869811
0.884181
0.890876
0.889962
0.885263
0.879051
0.872762
0.868095
0.866283
0.868399
0.874194
0.88381
0.895909
0.908497
0.917804
0.918682
0.907153
0.897517
0.851753
0.862883
0.877885
0.886868
0.886271
0.878786
0.868026
0.855972
0.844875
0.836767
0.833084
0.835051
0.842362
0.855333
0.872838
0.893005
0.912164
0.924348
0.920553
0.905012
0.857079
0.868392
0.880844
0.883713
0.87613
0.862152
0.845102
0.827456
0.812095
0.801074
0.79582
0.797267
0.805404
0.82044
0.841719
0.867759
0.895542
0.919768
0.931055
0.916163
0.86036
0.870927
0.879991
0.87698
0.863183
0.843316
0.820753
0.798692
0.780289
0.767447
0.761316
0.762332
0.770664
0.786432
0.80948
0.838996
0.872674
0.905893
0.930786
0.932016
0.862153
0.87147
0.877193
0.869222
0.850248
0.825437
0.798555
0.773422
0.753197
0.739509
0.733074
0.733909
0.742058
0.757574
0.780655
0.8114
0.848698
0.88851
0.923017
0.940598
0.862918
0.870813
0.873651
0.861867
0.83897
0.810512
0.780681
0.753646
0.732442
0.718409
0.711877
0.712638
0.720546
0.735475
0.757588
0.787629
0.826245
0.870951
0.912904
0.937392
0.862993
0.869615
0.870476
0.856403
0.831039
0.800202
0.768482
0.740256
0.718424
0.704085
0.69733
0.697901
0.705578
0.720048
0.741107
0.769459
0.807248
0.85478
0.903893
0.93506
0.862588
0.868207
0.867957
0.85291
0.826427
0.794521
0.762038
0.733324
0.711116
0.696381
0.689157
0.689259
0.696513
0.71053
0.730706
0.757159
0.792683
0.84078
0.895444
0.933548
0.861827
0.866787
0.86639
0.85192
0.825905
0.794269
0.761981
0.733272
0.710788
0.695534
0.687638
0.686999
0.693494
0.706745
0.725927
0.750432
0.782836
0.829756
0.888735
0.932743
0.860717
0.865333
0.865435
0.852659
0.828437
0.79834
0.767322
0.739419
0.717186
0.701702
0.693211
0.691678
0.697053
0.708986
0.72663
0.748958
0.777665
0.821644
0.883392
0.932662
0.859188
0.863775
0.864965
0.85505
0.834163
0.807082
0.778533
0.752306
0.730869
0.715421
0.706384
0.703727
0.707545
0.717479
0.732788
0.752277
0.776911
0.816911
0.879951
0.933186
0.85712
0.861921
0.864159
0.857306
0.840546
0.817648
0.792855
0.769578
0.750072
0.735525
0.726479
0.722887
0.724912
0.732264
0.74435
0.760345
0.780682
0.815441
0.878111
0.934316
0.854623
0.859782
0.863326
0.859889
0.848111
0.83056
0.810704
0.791439
0.774754
0.761755
0.753011
0.748588
0.748524
0.752739
0.760872
0.77252
0.78824
0.816758
0.878014
0.936099
0.852206
0.857212
0.860963
0.859806
0.852469
0.840542
0.826442
0.812332
0.7997
0.789444
0.781953
0.777433
0.775745
0.777037
0.781304
0.78847
0.800083
0.82322
0.881556
0.939121
0.85048
0.855907
0.860583
0.861236
0.857745
0.851011
0.842443
0.83337
0.824759
0.817313
0.811306
0.807019
0.804446
0.803732
0.805321
0.809012
0.817704
0.835682
0.88829
0.942941
0.829401
0.852414
0.8536
0.854159
0.852424
0.849565
0.84602
0.842629
0.839456
0.837134
0.835457
0.834777
0.834983
0.836
0.838544
0.841736
0.849844
0.863919
0.904134
0.949487
0.879947
0.894669
0.902713
0.907714
0.91059
0.912521
0.913696
0.914834
0.915692
0.916829
0.917828
0.919197
0.920449
0.922082
0.923621
0.925718
0.928295
0.933663
0.944179
0.962943
)
;

boundaryField
{
    movingWall
    {
        type            fixedValue;
        value           uniform 1;
    }
    fixedWalls
    {
        type            zeroGradient;
    }
    frontAndBack
    {
        type            empty;
    }
}


// ************************************************************************* //
