/*--------------------------------*- C++ -*----------------------------------*\
| =========                 |                                                 |
| \\      /  F ield         | OpenFOAM: The Open Source CFD Toolbox           |
|  \\    /   O peration     | Version:  2212                                  |
|   \\  /    A nd           | Website:  www.openfoam.com                      |
|    \\/     M anipulation  |                                                 |
\*---------------------------------------------------------------------------*/
FoamFile
{
    version     2.0;
    format      ascii;
    arch        "LSB;label=32;scalar=64";
    class       volScalarField;
    location    "8";
    object      p;
}
// * * * * * * * * * * * * * * * * * * * * * * * * * * * * * * * * * * * * * //

dimensions      [0 2 -2 0 0 0 0];

internalField   nonuniform List<scalar> 
400
(
5.60484e-07
-0.000150389
-0.000534376
-0.00107147
-0.00173207
-0.00249339
-0.0031844
-0.0035969
-0.00356466
-0.00293344
-0.00154805
0.000619654
0.00324971
0.00551437
0.00653461
0.00592458
0.00400451
0.00215247
0.0011135
0.00104438
0.000116491
-5.78899e-05
-0.000376753
-0.000763852
-0.0012437
-0.00188771
-0.00270564
-0.00354276
-0.0040791
-0.00393751
-0.00284568
-0.000824341
0.00168975
0.00396145
0.00512577
0.00474497
0.00310567
0.00137767
0.000596091
0.000687005
0.000536532
0.000265141
-7.70704e-05
-0.000559337
-0.00134689
-0.00257999
-0.00421812
-0.00598229
-0.00740068
-0.00794185
-0.00726231
-0.00546038
-0.00289029
-0.000193348
0.00179333
0.00242988
0.00171155
0.000505114
-0.000393051
-0.000389918
0.00115186
0.000741264
0.000192019
-0.000774472
-0.00245041
-0.00493648
-0.00799292
-0.0111173
-0.0136994
-0.0151725
-0.0152024
-0.0138358
-0.01129
-0.00802596
-0.00474944
-0.002207
-0.000867618
-0.000703392
-0.00128594
-0.00191534
0.0015829
0.000973481
-2.28286e-05
-0.00192352
-0.00500519
-0.00917731
-0.0139094
-0.0184739
-0.0222089
-0.0246448
-0.0255202
-0.0247148
-0.0223562
-0.0187373
-0.0142995
-0.00965149
-0.00558862
-0.00294592
-0.00219051
-0.00401498
0.00129271
0.000444647
-0.00119718
-0.00430319
-0.00900223
-0.0148757
-0.0210656
-0.0267059
-0.03118
-0.034166
-0.0355323
-0.0351767
-0.0331852
-0.0297085
-0.024891
-0.0189543
-0.0125003
-0.00694471
-0.0043979
-0.00652083
-4.89174e-05
-0.00114779
-0.00349881
-0.00779459
-0.013928
-0.021107
-0.0282258
-0.0343945
-0.039113
-0.0422146
-0.0437016
-0.0435926
-0.0419561
-0.0388641
-0.0342986
-0.0281475
-0.0205318
-0.0126978
-0.00785123
-0.00774493
-0.00245066
-0.00374189
-0.0066971
-0.0119097
-0.0190332
-0.0269717
-0.0344904
-0.040762
-0.0454306
-0.0484547
-0.0499163
-0.0499078
-0.0485086
-0.0457691
-0.0416461
-0.0359136
-0.0283157
-0.0193641
-0.0118178
-0.00797763
-0.00553706
-0.0069141
-0.0102611
-0.0160168
-0.0236495
-0.0318768
-0.0394345
-0.0455921
-0.0501131
-0.0530306
-0.0544584
-0.0544986
-0.053226
-0.0507019
-0.0469419
-0.0417958
-0.0348553
-0.0259386
-0.0167031
-0.0099907
-0.00873231
-0.0100839
-0.013594
-0.0195356
-0.0272759
-0.0354723
-0.0428928
-0.048886
-0.0532818
-0.0561367
-0.057559
-0.0576303
-0.0564136
-0.0539836
-0.0504277
-0.0457415
-0.0396193
-0.0315129
-0.0223133
-0.0143342
-0.0115019
-0.0127551
-0.0162147
-0.0220467
-0.0295954
-0.0375724
-0.0448054
-0.0506735
-0.0550128
-0.057861
-0.0593016
-0.0593931
-0.0581857
-0.0557591
-0.0522614
-0.0478317
-0.042415
-0.0353704
-0.0271888
-0.019172
-0.0135467
-0.0146154
-0.0178509
-0.0233074
-0.0304188
-0.038046
-0.0450961
-0.0509233
-0.0552983
-0.0582065
-0.0596924
-0.0597948
-0.0585546
-0.0560527
-0.0524897
-0.0481173
-0.0431908
-0.0370441
-0.0300225
-0.0224093
-0.0148346
-0.0155645
-0.0183469
-0.0232024
-0.0296817
-0.0368627
-0.0437437
-0.0496146
-0.0541251
-0.057168
-0.0587353
-0.0588424
-0.057525
-0.0548866
-0.0511526
-0.0466365
-0.0419509
-0.0362893
-0.0302177
-0.0228887
-0.015465
-0.015719
-0.0177728
-0.0217394
-0.0273794
-0.0340172
-0.0407316
-0.0467172
-0.0514655
-0.0547378
-0.05645
-0.0565911
-0.0551714
-0.0523264
-0.0483244
-0.0435653
-0.0387191
-0.0331335
-0.0280933
-0.0202742
-0.0155718
-0.0152955
-0.0163345
-0.0190825
-0.023645
-0.0296224
-0.0361558
-0.0423158
-0.0474038
-0.0510127
-0.0529518
-0.0531553
-0.0516647
-0.0485688
-0.044209
-0.0390414
-0.0337743
-0.0280676
-0.0242285
-0.0143834
-0.0152745
-0.014548
-0.0142584
-0.0154226
-0.0186795
-0.0238863
-0.0302194
-0.0365988
-0.0421183
-0.0461789
-0.0484655
-0.0488427
-0.0473314
-0.0440029
-0.0392357
-0.0335111
-0.0276383
-0.0216298
-0.0180556
-0.00383545
-0.0146601
-0.0136166
-0.0117056
-0.0110798
-0.0129512
-0.0173756
-0.0235261
-0.0301588
-0.0361782
-0.0407937
-0.0435593
-0.0442424
-0.0428332
-0.0393626
-0.0341764
-0.0276863
-0.0206839
-0.0132816
-0.00679324
0.0160464
-0.014582
-0.0126562
-0.00864839
-0.00623534
-0.00691042
-0.0107444
-0.0168137
-0.0237323
-0.0302876
-0.0355255
-0.0388882
-0.0400197
-0.0388639
-0.0354377
-0.0298903
-0.0222758
-0.0128781
-0.000697922
0.0166834
0.0570543
-0.011794
-0.0118304
-0.0057273
-0.00177747
-0.00176745
-0.00540581
-0.0115737
-0.0188101
-0.0258673
-0.0316764
-0.0356495
-0.0373488
-0.0366736
-0.0333468
-0.0272204
-0.0175434
-0.00315579
0.0204784
0.0606912
0.129811
-0.0295159
-0.0106299
-0.000610814
0.00307757
0.0024449
-0.00155907
-0.007999
-0.0155497
-0.022969
-0.0291638
-0.03352
-0.0355757
-0.0351901
-0.0319476
-0.0252238
-0.0128614
0.00941573
0.0511606
0.122866
0.226067
)
;

boundaryField
{
    movingWall
    {
        type            zeroGradient;
    }
    fixedWalls
    {
        type            zeroGradient;
    }
    frontAndBack
    {
        type            empty;
    }
}


// ************************************************************************* //
