/*--------------------------------*- C++ -*----------------------------------*\
| =========                 |                                                 |
| \\      /  F ield         | OpenFOAM: The Open Source CFD Toolbox           |
|  \\    /   O peration     | Version:  2212                                  |
|   \\  /    A nd           | Website:  www.openfoam.com                      |
|    \\/     M anipulation  |                                                 |
\*---------------------------------------------------------------------------*/
FoamFile
{
    version     2.0;
    format      ascii;
    arch        "LSB;label=32;scalar=64";
    class       surfaceScalarField;
    location    "8";
    object      phi;
}
// * * * * * * * * * * * * * * * * * * * * * * * * * * * * * * * * * * * * * //

dimensions      [0 3 -1 0 0 0 0];

oriented        oriented;

internalField   nonuniform List<scalar> 
760
(
1.56033e-07
-1.56084e-07
2.93526e-07
-1.37493e-07
3.09865e-07
-1.63396e-08
1.83558e-07
1.26307e-07
-1.204e-07
3.03958e-07
-6.65943e-07
5.45542e-07
-1.48515e-06
8.19208e-07
-2.49058e-06
1.00543e-06
-3.47995e-06
9.89365e-07
-4.21991e-06
7.39963e-07
-4.54359e-06
3.23682e-07
-4.35343e-06
-1.90166e-07
-3.59375e-06
-7.59677e-07
-2.3792e-06
-1.21455e-06
-9.40413e-07
-1.43879e-06
3.47275e-07
-1.28769e-06
1.08955e-06
-7.42272e-07
1.03286e-06
5.66823e-08
4.60924e-07
5.71941e-07
4.60924e-07
1.24968e-07
-2.81052e-07
7.44621e-08
-8.69877e-08
-2.97164e-07
3.55286e-07
-1.07895e-06
9.08095e-07
-2.31579e-06
1.5408e-06
-3.927e-06
2.15675e-06
-5.66165e-06
2.55385e-06
-7.20619e-06
2.54998e-06
-8.33601e-06
2.11918e-06
-8.94136e-06
1.34532e-06
-8.97538e-06
3.57698e-07
-8.41554e-06
-7.50001e-07
-7.2932e-06
-1.88202e-06
-5.64187e-06
-2.86588e-06
-3.6059e-06
-3.47475e-06
-1.4905e-06
-3.40309e-06
1.78369e-07
-2.41114e-06
8.58729e-07
-6.23677e-07
5.25611e-07
9.05059e-07
9.86535e-07
-1.27664e-07
-1.53388e-07
-6.33994e-07
4.19343e-07
-1.62489e-06
1.34618e-06
-3.1412e-06
2.42441e-06
-5.05694e-06
3.45654e-06
-7.07247e-06
4.17229e-06
-8.8723e-06
4.35368e-06
-1.02764e-05
3.95405e-06
-1.1233e-05
3.07584e-06
-1.17345e-05
1.84683e-06
-1.17287e-05
3.5182e-07
-1.12699e-05
-1.20879e-06
-1.03374e-05
-2.81451e-06
-8.87701e-06
-4.32625e-06
-6.86907e-06
-5.4827e-06
-4.40302e-06
-5.86914e-06
-1.87878e-06
-4.93538e-06
-8.65348e-08
-2.41592e-06
2.94639e-07
5.23885e-07
1.28117e-06
-5.00512e-07
3.47123e-07
-1.55987e-06
1.47871e-06
-3.11915e-06
2.90546e-06
-5.08073e-06
4.38598e-06
-7.18426e-06
5.56007e-06
-9.12194e-06
6.10997e-06
-1.06915e-05
5.92328e-06
-1.18505e-05
5.11306e-06
-1.2627e-05
3.85233e-06
-1.30556e-05
2.27541e-06
-1.31207e-05
4.16919e-07
-1.28813e-05
-1.44818e-06
-1.22987e-05
-3.39713e-06
-1.12711e-05
-5.35389e-06
-9.66768e-06
-7.08607e-06
-7.36393e-06
-8.1729e-06
-4.39844e-06
-7.90087e-06
-1.37807e-06
-5.43629e-06
1.2068e-07
-9.7486e-07
1.40185e-06
-8.61841e-07
1.20896e-06
-2.36139e-06
2.97826e-06
-4.23217e-06
4.77624e-06
-6.27918e-06
6.43299e-06
-8.22125e-06
7.50215e-06
-9.83571e-06
7.72442e-06
-1.10459e-05
7.13344e-06
-1.18783e-05
5.94547e-06
-1.23947e-05
4.36877e-06
-1.26679e-05
2.54853e-06
-1.27884e-05
5.37498e-07
-1.27429e-05
-1.49371e-06
-1.25224e-05
-3.61759e-06
-1.20481e-05
-5.8282e-06
-1.11337e-05
-8.00046e-06
-9.49134e-06
-9.8153e-06
-6.82149e-06
-1.05707e-05
-3.22273e-06
-9.03505e-06
-2.61213e-07
-3.93638e-06
1.14064e-06
-1.08691e-06
2.29587e-06
-2.78416e-06
4.67551e-06
-4.67762e-06
6.6697e-06
-6.53536e-06
8.29072e-06
-8.13305e-06
9.09984e-06
-9.33969e-06
8.93107e-06
-1.01513e-05
7.94502e-06
-1.06329e-05
6.42709e-06
-1.08748e-05
4.61066e-06
-1.09766e-05
2.65036e-06
-1.10598e-05
6.20653e-07
-1.11104e-05
-1.44306e-06
-1.11448e-05
-3.58323e-06
-1.11339e-05
-5.83903e-06
-1.09246e-05
-8.20984e-06
-1.01897e-05
-1.05502e-05
-8.43498e-06
-1.23254e-05
-5.2444e-06
-1.22256e-05
-1.15858e-06
-8.0222e-06
-1.7942e-08
-1.11097e-06
3.40684e-06
-2.75876e-06
6.3233e-06
-4.45642e-06
8.36737e-06
-5.99217e-06
9.82647e-06
-7.2059e-06
1.03136e-05
-8.0353e-06
9.76047e-06
-8.51811e-06
8.42783e-06
-8.74132e-06
6.6503e-06
-8.8084e-06
4.67774e-06
-8.8161e-06
2.65806e-06
-8.84656e-06
6.51117e-07
-8.918e-06
-1.37162e-06
-9.05035e-06
-3.45088e-06
-9.25527e-06
-5.63412e-06
-9.47669e-06
-7.98842e-06
-9.48377e-06
-1.05431e-05
-8.7578e-06
-1.30514e-05
-6.54037e-06
-1.44431e-05
-2.42462e-06
-1.21379e-05
-2.44256e-06
-9.36354e-07
4.34319e-06
-2.34839e-06
7.73534e-06
-3.73604e-06
9.75502e-06
-4.91581e-06
1.10062e-05
-5.78675e-06
1.11845e-05
-6.33206e-06
1.03058e-05
-6.60892e-06
8.70469e-06
-6.70831e-06
6.74969e-06
-6.72611e-06
4.69554e-06
-6.73506e-06
2.66702e-06
-6.77056e-06
6.86616e-07
-6.84941e-06
-1.29277e-06
-6.99256e-06
-3.30773e-06
-7.23062e-06
-5.39605e-06
-7.58116e-06
-7.63788e-06
-7.95408e-06
-1.01702e-05
-7.94024e-06
-1.30652e-05
-6.72169e-06
-1.56616e-05
-3.58927e-06
-1.52704e-05
-6.03183e-06
-6.2584e-07
4.96903e-06
-1.68925e-06
8.79875e-06
-2.72325e-06
1.0789e-05
-3.56321e-06
1.18462e-05
-4.15363e-06
1.17749e-05
-4.50469e-06
1.06568e-05
-4.67529e-06
8.87529e-06
-4.74378e-06
6.81818e-06
-4.78229e-06
4.73405e-06
-4.83407e-06
2.71879e-06
-4.90897e-06
7.61513e-07
-5.01317e-06
-1.18857e-06
-5.15644e-06
-3.16446e-06
-5.36732e-06
-5.18518e-06
-5.70096e-06
-7.30424e-06
-6.17148e-06
-9.69966e-06
-6.56204e-06
-1.26747e-05
-6.1322e-06
-1.60914e-05
-3.9266e-06
-1.7476e-05
-9.95843e-06
-2.33148e-07
5.20218e-06
-8.94707e-07
9.4603e-06
-1.56708e-06
1.14614e-05
-2.09745e-06
1.23766e-05
-2.45816e-06
1.21356e-05
-2.67349e-06
1.08722e-05
-2.79165e-06
8.99345e-06
-2.86584e-06
6.89237e-06
-2.94055e-06
4.80875e-06
-3.0376e-06
2.81585e-06
-3.15971e-06
8.83624e-07
-3.30637e-06
-1.0419e-06
-3.47763e-06
-2.9932e-06
-3.68555e-06
-4.97726e-06
-3.9805e-06
-7.00929e-06
-4.44491e-06
-9.23525e-06
-5.02732e-06
-1.20923e-05
-5.12688e-06
-1.59919e-05
-3.56044e-06
-1.90424e-05
-1.35189e-05
1.63756e-07
5.03843e-06
-7.03713e-08
9.69443e-06
-4.03748e-07
1.17948e-05
-6.55189e-07
1.2628e-05
-8.1062e-07
1.22911e-05
-9.01177e-07
1.09627e-05
-9.66224e-07
9.0585e-06
-1.03762e-06
6.96377e-06
-1.13191e-06
4.90304e-06
-1.25685e-06
2.94079e-06
-1.41501e-06
1.04179e-06
-1.60853e-06
-8.48386e-07
-1.83583e-06
-2.7659e-06
-2.09455e-06
-4.71853e-06
-2.41192e-06
-6.69192e-06
-2.87935e-06
-8.76782e-06
-3.56232e-06
-1.14093e-05
-4.02692e-06
-1.55273e-05
-3.02672e-06
-2.00426e-05
-1.65456e-05
5.02349e-07
4.53608e-06
7.00559e-07
9.49622e-06
7.43951e-07
1.17514e-05
7.79702e-07
1.25923e-05
8.24675e-07
1.22461e-05
8.53558e-07
1.09338e-05
8.46706e-07
9.06535e-06
7.95928e-07
7.01455e-06
7.02048e-07
4.99692e-06
5.66766e-07
3.07607e-06
3.84868e-07
1.22369e-06
1.50162e-07
-6.13681e-07
-1.38907e-07
-2.47683e-06
-4.88981e-07
-4.36846e-06
-9.03634e-07
-6.27727e-06
-1.42631e-06
-8.24514e-06
-2.20449e-06
-1.06311e-05
-2.95406e-06
-1.47777e-05
-2.46099e-06
-2.05357e-05
-1.90066e-05
7.59529e-07
3.77655e-06
1.35917e-06
8.89658e-06
1.75355e-06
1.1357e-05
2.08451e-06
1.22613e-05
2.35897e-06
1.19716e-05
2.54679e-06
1.0746e-05
2.63988e-06
8.97226e-06
2.64894e-06
7.00548e-06
2.58795e-06
5.05791e-06
2.46328e-06
3.20074e-06
2.26731e-06
1.41966e-06
1.98593e-06
-3.32309e-07
1.61982e-06
-2.11072e-06
1.16406e-06
-3.9127e-06
6.14413e-07
-5.72762e-06
-8.02674e-08
-7.55046e-06
-9.54022e-07
-9.75738e-06
-1.91716e-06
-1.38146e-05
-1.9243e-06
-2.05285e-05
-2.09309e-05
8.75213e-07
2.90134e-06
1.81843e-06
7.95337e-06
2.56328e-06
1.06122e-05
3.20717e-06
1.16174e-05
3.75758e-06
1.14212e-05
4.17131e-06
1.03323e-05
4.43253e-06
8.71105e-06
4.55519e-06
6.88282e-06
4.56211e-06
5.05098e-06
4.4683e-06
3.29455e-06
4.27154e-06
1.61642e-06
3.93921e-06
1.83288e-11
3.49207e-06
-1.66357e-06
2.90448e-06
-3.32511e-06
2.17772e-06
-5.00086e-06
1.33091e-06
-6.70365e-06
2.73683e-07
-8.70015e-06
-9.53674e-07
-1.25872e-05
-1.42513e-06
-2.00571e-05
-2.2356e-05
8.11094e-07
2.09024e-06
1.96429e-06
6.80017e-06
3.01163e-06
9.56481e-06
3.98941e-06
1.06396e-05
4.87071e-06
1.05399e-05
5.58955e-06
9.61347e-06
6.1068e-06
8.19379e-06
6.42541e-06
6.56421e-06
6.56612e-06
4.91028e-06
6.54675e-06
3.31392e-06
6.36546e-06
1.79771e-06
6.01957e-06
3.45909e-07
5.47601e-06
-1.12001e-06
4.74228e-06
-2.59138e-06
3.81056e-06
-4.06913e-06
2.70988e-06
-5.60297e-06
1.4008e-06
-7.39107e-06
-1.49398e-07
-1.1037e-05
-9.09388e-07
-1.92971e-05
-2.32654e-05
5.81197e-07
1.50905e-06
1.76956e-06
5.6118e-06
3.11432e-06
8.22005e-06
4.47162e-06
9.28232e-06
5.74398e-06
9.26758e-06
6.83278e-06
8.52467e-06
7.67261e-06
7.35396e-06
8.25077e-06
5.98605e-06
8.57953e-06
4.58152e-06
8.67548e-06
3.21797e-06
8.54526e-06
1.92793e-06
8.18596e-06
7.05202e-07
7.55348e-06
-4.87523e-07
6.66524e-06
-1.70314e-06
5.50862e-06
-2.91252e-06
4.12467e-06
-4.21902e-06
2.58732e-06
-5.85372e-06
9.68227e-07
-9.41794e-06
-1.39309e-07
-1.81895e-05
-2.34047e-05
1.54188e-07
1.35486e-06
1.04813e-06
4.71786e-06
2.5325e-06
6.73568e-06
4.26213e-06
7.55269e-06
5.99167e-06
7.53804e-06
7.53336e-06
6.98298e-06
8.7845e-06
6.10282e-06
9.71528e-06
5.05527e-06
1.03207e-05
3.97609e-06
1.06121e-05
2.92656e-06
1.05954e-05
1.94463e-06
1.02761e-05
1.0245e-06
9.60794e-06
1.80662e-07
8.61335e-06
-7.08561e-07
7.2822e-06
-1.58136e-06
5.66665e-06
-2.60347e-06
3.92785e-06
-4.11493e-06
2.24998e-06
-7.74006e-06
6.56654e-07
-1.65962e-05
-2.27481e-05
-5.19033e-07
1.87389e-06
2.03547e-07
3.99528e-06
1.76723e-06
5.172e-06
3.84024e-06
5.47967e-06
6.0054e-06
5.37288e-06
7.97571e-06
5.01268e-06
9.61454e-06
4.46398e-06
1.08803e-05
3.78951e-06
1.17554e-05
3.10095e-06
1.22561e-05
2.42593e-06
1.23856e-05
1.81508e-06
1.21638e-05
1.24631e-06
1.16148e-05
7.29642e-07
1.0709e-05
1.97259e-07
9.45108e-06
-3.23442e-07
7.91474e-06
-1.06712e-06
6.28587e-06
-2.48605e-06
4.4662e-06
-5.92039e-06
2.0595e-06
-1.41895e-05
-2.06885e-05
-4.18144e-06
6.05533e-06
-3.64404e-06
3.45788e-06
-1.24399e-06
2.77195e-06
1.56203e-06
2.67365e-06
4.31011e-06
2.62481e-06
6.8532e-06
2.46958e-06
9.07765e-06
2.23954e-06
1.0923e-05
1.9442e-06
1.23706e-05
1.65335e-06
1.34474e-05
1.34913e-06
1.41704e-05
1.09206e-06
1.45844e-05
8.32309e-07
1.4677e-05
6.37062e-07
1.44571e-05
4.17129e-07
1.39207e-05
2.12933e-07
1.30837e-05
-2.30106e-07
1.1934e-05
-1.33632e-06
1.01164e-05
-4.10285e-06
5.63949e-06
-9.71257e-06
-1.50491e-05
6.05533e-06
9.51321e-06
1.22852e-05
1.49588e-05
1.75836e-05
2.00532e-05
2.22927e-05
2.42369e-05
2.58903e-05
2.72394e-05
2.83315e-05
2.91638e-05
2.98008e-05
3.0218e-05
3.04309e-05
3.02008e-05
2.88645e-05
2.47616e-05
1.50491e-05
)
;

boundaryField
{
    movingWall
    {
        type            calculated;
        value           uniform 0;
    }
    fixedWalls
    {
        type            calculated;
        value           uniform 0;
    }
    frontAndBack
    {
        type            empty;
        value           nonuniform List<scalar> 0();
    }
}


// ************************************************************************* //
