/*--------------------------------*- C++ -*----------------------------------*\
| =========                 |                                                 |
| \\      /  F ield         | OpenFOAM: The Open Source CFD Toolbox           |
|  \\    /   O peration     | Version:  2212                                  |
|   \\  /    A nd           | Website:  www.openfoam.com                      |
|    \\/     M anipulation  |                                                 |
\*---------------------------------------------------------------------------*/
FoamFile
{
    version     2.0;
    format      ascii;
    arch        "LSB;label=32;scalar=64";
    class       volScalarField;
    location    "8";
    object      T;
}
// * * * * * * * * * * * * * * * * * * * * * * * * * * * * * * * * * * * * * //

dimensions      [0 0 0 1 0 0 0];

internalField   nonuniform List<scalar> 
400
(
0.826118
0.830833
0.840331
0.854234
0.870152
0.884254
0.893896
0.899096
0.901646
0.90328
0.904712
0.906136
0.907602
0.90904
0.910185
0.910587
0.909512
0.906101
0.9007
0.896259
0.832348
0.838014
0.849325
0.865341
0.881916
0.89368
0.899142
0.90102
0.901768
0.902326
0.903215
0.904733
0.906972
0.909778
0.912518
0.914212
0.913363
0.908804
0.902032
0.897063
0.841984
0.849438
0.863251
0.879727
0.892474
0.897926
0.898333
0.896888
0.894906
0.893395
0.893237
0.895042
0.898835
0.904477
0.910888
0.91644
0.918401
0.91399
0.904484
0.898537
0.851372
0.860674
0.87563
0.889094
0.895307
0.894309
0.889703
0.883665
0.877579
0.873072
0.871332
0.873387
0.878993
0.888283
0.899966
0.912129
0.921163
0.922153
0.911317
0.902226
0.858652
0.869097
0.883146
0.891486
0.890742
0.883437
0.873002
0.86135
0.85064
0.842827
0.839293
0.841217
0.848298
0.860832
0.877726
0.897173
0.915647
0.927442
0.92399
0.909317
0.86362
0.874219
0.885819
0.888322
0.880883
0.867329
0.850839
0.833798
0.818972
0.808349
0.803305
0.804741
0.812638
0.827188
0.847745
0.872866
0.899638
0.922967
0.933892
0.919852
0.866665
0.876533
0.884882
0.881754
0.868342
0.84911
0.8273
0.805989
0.788216
0.775831
0.769944
0.770977
0.779081
0.794361
0.816651
0.845153
0.87763
0.909621
0.933564
0.934844
0.868312
0.876976
0.882117
0.874226
0.855826
0.83182
0.805833
0.781542
0.761999
0.748795
0.742623
0.743496
0.751443
0.7665
0.788842
0.818547
0.854536
0.892901
0.926101
0.942972
0.868993
0.876297
0.878667
0.867106
0.844918
0.817386
0.788541
0.762402
0.741907
0.72837
0.722113
0.722927
0.730659
0.745166
0.766591
0.795634
0.832907
0.876001
0.916387
0.939918
0.869031
0.875125
0.8756
0.861828
0.837254
0.807418
0.776741
0.749442
0.728338
0.714508
0.70804
0.70868
0.716199
0.730278
0.750697
0.778123
0.814609
0.860436
0.907719
0.937679
0.868622
0.873773
0.873186
0.858468
0.832806
0.801932
0.770513
0.742743
0.721276
0.707063
0.700144
0.700334
0.707451
0.721099
0.740676
0.766279
0.800587
0.846968
0.899601
0.936231
0.867884
0.872428
0.871714
0.857542
0.832322
0.801706
0.770476
0.742713
0.720982
0.706268
0.698698
0.698169
0.70455
0.71746
0.736082
0.759811
0.791115
0.836363
0.89315
0.935459
0.866819
0.871062
0.870848
0.858299
0.8348
0.805669
0.775668
0.748691
0.727209
0.712273
0.704125
0.702725
0.708017
0.719647
0.736782
0.758412
0.786153
0.828569
0.888019
0.935383
0.865358
0.869608
0.870469
0.860676
0.840383
0.814161
0.786548
0.761195
0.740489
0.725591
0.71691
0.714415
0.71819
0.727878
0.742749
0.761636
0.785448
0.824028
0.884716
0.935887
0.863381
0.867868
0.869771
0.862933
0.846614
0.824426
0.800442
0.777945
0.75911
0.745083
0.736389
0.73298
0.735009
0.742188
0.753936
0.769443
0.789107
0.822633
0.882956
0.936976
0.860994
0.865855
0.869058
0.865529
0.854012
0.836979
0.817759
0.799136
0.783026
0.770493
0.762085
0.757863
0.75786
0.761995
0.769911
0.781212
0.796416
0.823923
0.882869
0.938689
0.858679
0.863405
0.866844
0.865543
0.858323
0.846719
0.833055
0.819408
0.807208
0.797319
0.790113
0.785785
0.784199
0.785495
0.789663
0.796623
0.807853
0.830166
0.886285
0.941593
0.857029
0.86218
0.866543
0.867022
0.863533
0.856949
0.848626
0.839839
0.831516
0.824333
0.818548
0.814432
0.811976
0.811315
0.812876
0.816462
0.824854
0.842176
0.892764
0.945263
0.83679
0.858752
0.859813
0.860263
0.858518
0.855705
0.852244
0.848942
0.84586
0.843606
0.841979
0.841317
0.841511
0.84249
0.844939
0.848012
0.855812
0.869347
0.907996
0.95155
0.885155
0.899227
0.906907
0.911671
0.914398
0.916223
0.917324
0.918392
0.919196
0.92027
0.921214
0.922516
0.923707
0.925266
0.926737
0.928742
0.931214
0.936364
0.946464
0.96447
)
;

boundaryField
{
    movingWall
    {
        type            fixedValue;
        value           uniform 1;
    }
    fixedWalls
    {
        type            zeroGradient;
    }
    frontAndBack
    {
        type            empty;
    }
}


// ************************************************************************* //
