/*--------------------------------*- C++ -*----------------------------------*\
| =========                 |                                                 |
| \\      /  F ield         | OpenFOAM: The Open Source CFD Toolbox           |
|  \\    /   O peration     | Version:  2212                                  |
|   \\  /    A nd           | Website:  www.openfoam.com                      |
|    \\/     M anipulation  |                                                 |
\*---------------------------------------------------------------------------*/
FoamFile
{
    version     2.0;
    format      ascii;
    arch        "LSB;label=32;scalar=64";
    class       volVectorField;
    location    "8";
    object      U;
}
// * * * * * * * * * * * * * * * * * * * * * * * * * * * * * * * * * * * * * //

dimensions      [0 1 -1 0 0 0 0];

internalField   nonuniform List<vector> 
400
(
(0.00168131 -0.00168341 0)
(0.00483718 -0.00189175 0)
(0.0065888 -0.00120045 0)
(0.00567222 -0.000574959 0)
(0.00156985 0.000184129 0)
(-0.00683052 0.00173934 0)
(-0.0206076 0.00478566 0)
(-0.0395376 0.00873453 0)
(-0.0608049 0.011291 0)
(-0.0791301 0.0105116 0)
(-0.0898059 0.00677462 0)
(-0.0904586 0.00166988 0)
(-0.0802248 -0.00361501 0)
(-0.0599964 -0.00827336 0)
(-0.0335268 -0.0108459 0)
(-0.00530076 -0.0097948 0)
(0.0167156 -0.0047742 0)
(0.0244646 0.00277539 0)
(0.0161762 0.00647093 0)
(0.00431614 0.00471651 0)
(0.00171968 -0.00506359 0)
(0.00316037 -0.00403066 0)
(-0.000420162 0.00058856 0)
(-0.0113322 0.00644146 0)
(-0.0314258 0.0140486 0)
(-0.0611453 0.0237706 0)
(-0.0968371 0.0330568 0)
(-0.131446 0.0370878 0)
(-0.158957 0.0335142 0)
(-0.176089 0.0234005 0)
(-0.181437 0.00911086 0)
(-0.175068 -0.00698655 0)
(-0.157553 -0.0231694 0)
(-0.129647 -0.036909 0)
(-0.0936144 -0.0445616 0)
(-0.0521979 -0.0418369 0)
(-0.0114059 -0.0263357 0)
(0.0168834 -0.001283 0)
(0.0178688 0.01622 0)
(0.00554164 0.0148179 0)
(-0.000240394 -0.00577739 0)
(-0.00538277 0.000804514 0)
(-0.0196105 0.0142994 0)
(-0.0445023 0.031233 0)
(-0.0803345 0.0494394 0)
(-0.122192 0.0643122 0)
(-0.162333 0.0705379 0)
(-0.195252 0.0660217 0)
(-0.218843 0.0521869 0)
(-0.23251 0.0315332 0)
(-0.236267 0.00641945 0)
(-0.230783 -0.0211071 0)
(-0.216372 -0.0488645 0)
(-0.19253 -0.0732178 0)
(-0.158996 -0.0890187 0)
(-0.115737 -0.089225 0)
(-0.0645624 -0.067029 0)
(-0.0138247 -0.0226702 0)
(0.00947923 0.0179123 0)
(0.00415538 0.0235767 0)
(-0.00347207 0.000456912 0)
(-0.0175144 0.0172424 0)
(-0.0435137 0.0414981 0)
(-0.0796756 0.0681875 0)
(-0.122947 0.0911502 0)
(-0.165835 0.103837 0)
(-0.201902 0.102892 0)
(-0.229223 0.0896629 0)
(-0.24806 0.067321 0)
(-0.259013 0.0385789 0)
(-0.262921 0.00532164 0)
(-0.26059 -0.0311082 0)
(-0.25196 -0.0684428 0)
(-0.235984 -0.10373 0)
(-0.210677 -0.131478 0)
(-0.173335 -0.142881 0)
(-0.121395 -0.125761 0)
(-0.0568433 -0.0708557 0)
(-0.000988922 0.00355908 0)
(0.00474223 0.0282363 0)
(-0.00666225 0.0147855 0)
(-0.0287275 0.0441106 0)
(-0.0632843 0.077089 0)
(-0.104451 0.10891 0)
(-0.147266 0.131197 0)
(-0.184562 0.138184 0)
(-0.212897 0.129492 0)
(-0.232678 0.108737 0)
(-0.245193 0.0797915 0)
(-0.252167 0.0454463 0)
(-0.255286 0.00724513 0)
(-0.255469 -0.033987 0)
(-0.252492 -0.077068 0)
(-0.245814 -0.120669 0)
(-0.232623 -0.160805 0)
(-0.208305 -0.189018 0)
(-0.166809 -0.189972 0)
(-0.103443 -0.142877 0)
(-0.0221831 -0.0388591 0)
(0.00738079 0.027096 0)
(-0.00850991 0.034874 0)
(-0.0351738 0.0766364 0)
(-0.0730857 0.114946 0)
(-0.113253 0.147691 0)
(-0.150513 0.166022 0)
(-0.179372 0.165959 0)
(-0.198895 0.14975 0)
(-0.210637 0.122494 0)
(-0.216583 0.0885375 0)
(-0.219212 0.0508678 0)
(-0.22048 0.0109599 0)
(-0.221382 -0.0307455 0)
(-0.222117 -0.0747023 0)
(-0.222795 -0.121269 0)
(-0.221227 -0.169214 0)
(-0.21233 -0.213048 0)
(-0.188016 -0.238581 0)
(-0.139681 -0.218537 0)
(-0.0628458 -0.118942 0)
(0.00584699 0.0141994 0)
(-0.00829183 0.0570039 0)
(-0.0353383 0.110006 0)
(-0.0718302 0.150487 0)
(-0.107068 0.181175 0)
(-0.1367 0.193868 0)
(-0.157103 0.186473 0)
(-0.169011 0.163312 0)
(-0.174545 0.130531 0)
(-0.176114 0.0928902 0)
(-0.176208 0.0534046 0)
(-0.17632 0.0133184 0)
(-0.177121 -0.0272962 0)
(-0.179156 -0.0695542 0)
(-0.18297 -0.114701 0)
(-0.187925 -0.163832 0)
(-0.190403 -0.215804 0)
(-0.182521 -0.26166 0)
(-0.154275 -0.275182 0)
(-0.0993973 -0.205912 0)
(-0.00890812 -0.0146282 0)
(-0.00613485 0.0775976 0)
(-0.0297901 0.140556 0)
(-0.0614229 0.181222 0)
(-0.0898913 0.208334 0)
(-0.111899 0.214923 0)
(-0.125433 0.200597 0)
(-0.132119 0.171366 0)
(-0.134266 0.134206 0)
(-0.134323 0.0940963 0)
(-0.134219 0.0537414 0)
(-0.134622 0.0138657 0)
(-0.135715 -0.0258728 0)
(-0.13795 -0.0664558 0)
(-0.142019 -0.109065 0)
(-0.14854 -0.15565 0)
(-0.156213 -0.208569 0)
(-0.159076 -0.265901 0)
(-0.146752 -0.308142 0)
(-0.112255 -0.277218 0)
(-0.0309646 -0.0753392 0)
(-0.00272958 0.0936152 0)
(-0.0204174 0.165646 0)
(-0.0451513 0.205612 0)
(-0.0663453 0.228601 0)
(-0.0816126 0.229562 0)
(-0.0901013 0.209575 0)
(-0.09373 0.175824 0)
(-0.0946373 0.135789 0)
(-0.0949096 0.0944491 0)
(-0.0957008 0.0540176 0)
(-0.097048 0.0145939 0)
(-0.0988571 -0.0245685 0)
(-0.101295 -0.0642029 0)
(-0.104866 -0.104962 0)
(-0.110719 -0.148438 0)
(-0.119588 -0.198562 0)
(-0.128349 -0.259799 0)
(-0.126527 -0.32347 0)
(-0.107482 -0.334778 0)
(-0.0373496 -0.163441 0)
(0.00121956 0.10276 0)
(-0.00894257 0.183486 0)
(-0.0256443 0.223166 0)
(-0.0396425 0.242784 0)
(-0.0491209 0.239548 0)
(-0.0539921 0.215574 0)
(-0.0559587 0.178819 0)
(-0.0566677 0.137124 0)
(-0.0576246 0.095375 0)
(-0.0593636 0.0552529 0)
(-0.0616545 0.0163074 0)
(-0.064354 -0.0224757 0)
(-0.0674532 -0.0617057 0)
(-0.0711307 -0.101584 0)
(-0.0763189 -0.142783 0)
(-0.0845879 -0.188927 0)
(-0.0960626 -0.248359 0)
(-0.100653 -0.324334 0)
(-0.0951749 -0.372244 0)
(-0.0309236 -0.24259 0)
(0.00511802 0.103926 0)
(0.00295775 0.193085 0)
(-0.00538889 0.23366 0)
(-0.012505 0.250816 0)
(-0.016895 0.24473 0)
(-0.0187809 0.218512 0)
(-0.0194673 0.18045 0)
(-0.0199934 0.138377 0)
(-0.0212896 0.0969262 0)
(-0.0235242 0.0574003 0)
(-0.026412 0.0190767 0)
(-0.0298946 -0.0191525 0)
(-0.0339883 -0.057945 0)
(-0.0386319 -0.0973541 0)
(-0.0443716 -0.1373 0)
(-0.0524351 -0.180168 0)
(-0.0657566 -0.235652 0)
(-0.074222 -0.318109 0)
(-0.0811999 -0.396747 0)
(-0.0229423 -0.307147 0)
(0.00845631 0.0974521 0)
(0.0142194 0.194078 0)
(0.0141027 0.237182 0)
(0.0137086 0.253596 0)
(0.0143316 0.246515 0)
(0.0155289 0.219807 0)
(0.0163889 0.181758 0)
(0.0164431 0.140045 0)
(0.0153052 0.0991122 0)
(0.0130276 0.0601985 0)
(0.00985971 0.0226187 0)
(0.00575223 -0.0147391 0)
(0.000562195 -0.0526624 0)
(-0.00556156 -0.0912496 0)
(-0.0130274 -0.130131 0)
(-0.0219743 -0.170307 0)
(-0.0377161 -0.220693 0)
(-0.0487317 -0.304468 0)
(-0.0679053 -0.408492 0)
(-0.0144595 -0.360029 0)
(0.0103268 0.0844754 0)
(0.0234152 0.186483 0)
(0.0310783 0.233306 0)
(0.0370074 0.250142 0)
(0.0426685 0.2433 0)
(0.0476225 0.217515 0)
(0.0510587 0.180753 0)
(0.0527332 0.14035 0)
(0.0525999 0.100594 0)
(0.0508688 0.0627965 0)
(0.047758 0.0264483 0)
(0.0431505 -0.00950946 0)
(0.0368788 -0.0459701 0)
(0.0290663 -0.0830908 0)
(0.0189153 -0.120505 0)
(0.0075926 -0.158441 0)
(-0.0118199 -0.204405 0)
(-0.0242445 -0.28647 0)
(-0.0558468 -0.410999 0)
(-0.00613847 -0.401879 0)
(0.00987522 0.0672283 0)
(0.0290245 0.170676 0)
(0.0443487 0.222217 0)
(0.0568899 0.241309 0)
(0.0681823 0.23638 0)
(0.077868 0.213018 0)
(0.0850876 0.178726 0)
(0.0895402 0.140387 0)
(0.0913026 0.102233 0)
(0.0906749 0.0658062 0)
(0.0879877 0.0309704 0)
(0.0829386 -0.00329319 0)
(0.0754261 -0.0375207 0)
(0.0657372 -0.0722891 0)
(0.0524905 -0.107404 0)
(0.0375618 -0.142746 0)
(0.0131244 -0.184235 0)
(7.27914e-05 -0.263232 0)
(-0.0448015 -0.406702 0)
(0.00276426 -0.436259 0)
(0.00692766 0.0493952 0)
(0.0293584 0.148957 0)
(0.0511045 0.20363 0)
(0.0699813 0.224545 0)
(0.0874559 0.221685 0)
(0.103149 0.201527 0)
(0.115817 0.170933 0)
(0.124779 0.136045 0)
(0.129948 0.100853 0)
(0.131566 0.0670328 0)
(0.1299 0.0348357 0)
(0.124976 0.0034364 0)
(0.116346 -0.0274475 0)
(0.104617 -0.0586751 0)
(0.0875284 -0.0902896 0)
(0.0683438 -0.122902 0)
(0.0382852 -0.160823 0)
(0.0238515 -0.237136 0)
(-0.0344446 -0.398952 0)
(0.013473 -0.464421 0)
(0.00238624 0.034629 0)
(0.0236355 0.123894 0)
(0.0509495 0.17994 0)
(0.0766794 0.202935 0)
(0.101343 0.202621 0)
(0.124224 0.18622 0)
(0.143676 0.160164 0)
(0.158482 0.129735 0)
(0.168224 0.098547 0)
(0.173112 0.0682875 0)
(0.173085 0.0395538 0)
(0.168856 0.0119396 0)
(0.159021 -0.0148984 0)
(0.14529 -0.0416946 0)
(0.123991 -0.0687301 0)
(0.100456 -0.0975274 0)
(0.0646074 -0.132683 0)
(0.0469981 -0.207439 0)
(-0.0227102 -0.387075 0)
(0.0285301 -0.485552 0)
(-0.0034256 0.0286191 0)
(0.0100681 0.101499 0)
(0.0371035 0.148689 0)
(0.068966 0.169451 0)
(0.101858 0.170669 0)
(0.133576 0.158378 0)
(0.161572 0.137943 0)
(0.184115 0.113542 0)
(0.200161 0.0882574 0)
(0.210083 0.0636203 0)
(0.213005 0.0403754 0)
(0.21075 0.0184046 0)
(0.200487 -0.00266702 0)
(0.185857 -0.0232979 0)
(0.161047 -0.0439592 0)
(0.134434 -0.0677186 0)
(0.092909 -0.10167 0)
(0.0698669 -0.179997 0)
(-0.00437279 -0.370047 0)
(0.0521586 -0.491638 0)
(-0.014008 0.0185228 0)
(-0.00751539 0.0881774 0)
(0.0192141 0.12419 0)
(0.0564435 0.137312 0)
(0.0975939 0.136901 0)
(0.137973 0.127717 0)
(0.174223 0.113061 0)
(0.204065 0.095283 0)
(0.225958 0.0768125 0)
(0.241048 0.0586664 0)
(0.247082 0.0417979 0)
(0.247997 0.026108 0)
(0.238659 0.0117492 0)
(0.226845 -0.00203841 0)
(0.20185 -0.0160753 0)
(0.177873 -0.0350104 0)
(0.133533 -0.067789 0)
(0.107829 -0.145994 0)
(0.0374676 -0.326118 0)
(0.0923656 -0.455871 0)
(-0.106017 0.0824218 0)
(-0.0777574 0.0689943 0)
(-0.0485683 0.0733682 0)
(0.00377605 0.0778848 0)
(0.0572865 0.0782167 0)
(0.110014 0.0739517 0)
(0.157178 0.0666166 0)
(0.199536 0.0572128 0)
(0.231644 0.0475385 0)
(0.259794 0.0378838 0)
(0.27552 0.029219 0)
(0.290675 0.021235 0)
(0.291029 0.0144799 0)
(0.295143 0.00809816 0)
(0.278846 0.00113168 0)
(0.271637 -0.010006 0)
(0.232332 -0.035562 0)
(0.218136 -0.0954166 0)
(0.150207 -0.229723 0)
(0.170672 -0.341456 0)
(0.12997 0.103746 0)
(0.158323 0.0752307 0)
(0.21217 0.053231 0)
(0.270678 0.0416255 0)
(0.323252 0.0359149 0)
(0.375691 0.0319496 0)
(0.420283 0.028917 0)
(0.465598 0.0255812 0)
(0.49869 0.0229032 0)
(0.533938 0.019711 0)
(0.553375 0.0175485 0)
(0.579185 0.0146109 0)
(0.585324 0.0131665 0)
(0.603665 0.0103478 0)
(0.595089 0.00938566 0)
(0.603594 0.0050017 0)
(0.56779 9.07175e-05 0)
(0.547616 -0.0183151 0)
(0.435695 -0.0504145 0)
(0.336756 -0.101386 0)
)
;

boundaryField
{
    movingWall
    {
        type            fixedValue;
        value           uniform (1 0 0);
    }
    fixedWalls
    {
        type            noSlip;
    }
    frontAndBack
    {
        type            empty;
    }
}


// ************************************************************************* //
