/*--------------------------------*- C++ -*----------------------------------*\
| =========                 |                                                 |
| \\      /  F ield         | OpenFOAM: The Open Source CFD Toolbox           |
|  \\    /   O peration     | Version:  2212                                  |
|   \\  /    A nd           | Website:  www.openfoam.com                      |
|    \\/     M anipulation  |                                                 |
\*---------------------------------------------------------------------------*/
FoamFile
{
    version     2.0;
    format      ascii;
    arch        "LSB;label=32;scalar=64";
    class       volScalarField;
    location    "13.9";
    object      T;
}
// * * * * * * * * * * * * * * * * * * * * * * * * * * * * * * * * * * * * * //

dimensions      [0 0 0 1 0 0 0];

internalField   nonuniform List<scalar> 
400
(
0.952019
0.953044
0.955128
0.958212
0.961808
0.965088
0.967437
0.968802
0.969539
0.970039
0.970494
0.970964
0.971467
0.971986
0.972441
0.972701
0.972552
0.971766
0.97047
0.969408
0.953332
0.95459
0.957111
0.960719
0.964537
0.96735
0.968727
0.96921
0.969376
0.969502
0.969756
0.970239
0.970984
0.971951
0.972943
0.973663
0.973654
0.972572
0.970871
0.969646
0.955384
0.957074
0.96021
0.963985
0.966956
0.968217
0.968177
0.967583
0.966841
0.966278
0.966183
0.966757
0.968006
0.969891
0.972074
0.974052
0.974993
0.974061
0.971609
0.970088
0.957395
0.959531
0.96295
0.966011
0.96732
0.966753
0.965112
0.96302
0.960954
0.959426
0.958828
0.959492
0.961334
0.964394
0.968253
0.972311
0.975457
0.976227
0.973509
0.971123
0.958942
0.961334
0.964487
0.966197
0.965548
0.963017
0.959476
0.955573
0.952006
0.949403
0.948228
0.948864
0.951209
0.955347
0.960904
0.967281
0.973356
0.977401
0.976926
0.973047
0.95996
0.96234
0.964781
0.964845
0.962174
0.957617
0.952095
0.946423
0.941478
0.937929
0.936243
0.936729
0.939377
0.944235
0.951059
0.959336
0.968087
0.97569
0.979469
0.975861
0.960526
0.962651
0.964126
0.962523
0.957969
0.951539
0.944252
0.937132
0.931158
0.926982
0.92499
0.925342
0.928086
0.933243
0.940722
0.950209
0.960912
0.971337
0.979089
0.979898
0.960765
0.962519
0.963026
0.959962
0.953791
0.945764
0.937063
0.928898
0.922278
0.917786
0.915676
0.915974
0.91869
0.923818
0.931383
0.941356
0.95331
0.9659
0.97665
0.982058
0.960781
0.962137
0.961795
0.957568
0.950145
0.940927
0.931238
0.922402
0.915414
0.910773
0.908615
0.908892
0.91155
0.916529
0.923846
0.933681
0.946151
0.960372
0.973522
0.981084
0.960659
0.961685
0.960764
0.955813
0.947583
0.937576
0.927241
0.917973
0.910744
0.905977
0.903733
0.903946
0.906539
0.911392
0.918406
0.927762
0.940058
0.95526
0.970693
0.980346
0.960446
0.961242
0.959999
0.954704
0.946089
0.935721
0.925116
0.915665
0.908294
0.90338
0.900974
0.901031
0.903489
0.908204
0.91495
0.92373
0.935367
0.950831
0.968063
0.979875
0.960168
0.960857
0.959603
0.954438
0.945934
0.935642
0.92509
0.915634
0.90817
0.903082
0.900449
0.900257
0.902461
0.906923
0.913345
0.921506
0.932181
0.947332
0.965958
0.979618
0.959821
0.960505
0.959447
0.954751
0.946771
0.936968
0.926835
0.917657
0.910291
0.905136
0.902309
0.901815
0.903641
0.907656
0.913563
0.92101
0.93051
0.944771
0.964297
0.97959
0.959381
0.960165
0.959515
0.955666
0.948685
0.939836
0.930513
0.921906
0.914829
0.909706
0.906707
0.905839
0.907136
0.910474
0.915593
0.922094
0.930271
0.943283
0.963224
0.979747
0.958805
0.959742
0.959496
0.956569
0.950834
0.943303
0.935204
0.927586
0.921176
0.916378
0.913391
0.912215
0.912909
0.915376
0.919414
0.924749
0.931515
0.942852
0.962666
0.980095
0.958122
0.959255
0.959533
0.957682
0.95346
0.94759
0.941067
0.934762
0.929298
0.925034
0.922165
0.920723
0.920724
0.922147
0.924868
0.928761
0.933995
0.943314
0.962649
0.980643
0.957442
0.958556
0.959
0.957925
0.955098
0.950989
0.946293
0.941648
0.937507
0.934151
0.931705
0.930239
0.929708
0.930168
0.93161
0.934018
0.937875
0.945422
0.963779
0.981576
0.956962
0.958307
0.959148
0.95873
0.957145
0.954672
0.951719
0.948673
0.945821
0.943375
0.941413
0.940025
0.939202
0.938997
0.939541
0.94078
0.943616
0.949419
0.965893
0.982751
0.950493
0.95688
0.956878
0.956668
0.955816
0.954673
0.953366
0.952149
0.95103
0.950205
0.9496
0.949327
0.949343
0.949629
0.950402
0.951391
0.953924
0.958335
0.970832
0.984766
0.965225
0.969431
0.971685
0.973038
0.973763
0.974219
0.974459
0.974703
0.974876
0.975144
0.975382
0.97574
0.976072
0.976524
0.976959
0.977562
0.978332
0.979954
0.983189
0.988888
)
;

boundaryField
{
    movingWall
    {
        type            fixedValue;
        value           uniform 1;
    }
    fixedWalls
    {
        type            zeroGradient;
    }
    frontAndBack
    {
        type            empty;
    }
}


// ************************************************************************* //
