/*--------------------------------*- C++ -*----------------------------------*\
| =========                 |                                                 |
| \\      /  F ield         | OpenFOAM: The Open Source CFD Toolbox           |
|  \\    /   O peration     | Version:  2212                                  |
|   \\  /    A nd           | Website:  www.openfoam.com                      |
|    \\/     M anipulation  |                                                 |
\*---------------------------------------------------------------------------*/
FoamFile
{
    version     2.0;
    format      ascii;
    arch        "LSB;label=32;scalar=64";
    class       volScalarField;
    location    "20.7";
    object      p;
}
// * * * * * * * * * * * * * * * * * * * * * * * * * * * * * * * * * * * * * //

dimensions      [0 2 -2 0 0 0 0];

internalField   nonuniform List<scalar> 
400
(
4.79421e-09
-0.000151034
-0.000535119
-0.00107232
-0.00173305
-0.00249454
-0.00318567
-0.00359825
-0.00356602
-0.00293475
-0.00154919
0.000618779
0.00324901
0.00551352
0.00653318
0.00592227
0.00400143
0.00214898
0.00110998
0.00104092
0.00011585
-5.8569e-05
-0.000377513
-0.000764689
-0.00124461
-0.00188874
-0.00270687
-0.00354421
-0.0040807
-0.00393912
-0.00284711
-0.000825513
0.00168876
0.00396033
0.0051241
0.00474247
0.00310233
0.00137408
0.000592483
0.000683529
0.000535964
0.000264494
-7.77976e-05
-0.000560157
-0.00134787
-0.00258128
-0.00421986
-0.00598456
-0.00740338
-0.00794471
-0.00726501
-0.00546278
-0.00289239
-0.000195364
0.00179104
0.00242704
0.00170808
0.000501372
-0.000396822
-0.000393529
0.00115148
0.000740789
0.000191399
-0.000775342
-0.00245175
-0.00493857
-0.00799599
-0.0111214
-0.0137043
-0.0151779
-0.0152078
-0.0138408
-0.0112945
-0.00802996
-0.00475312
-0.00221062
-0.000871302
-0.000707146
-0.00128976
-0.00191908
0.00158288
0.000973271
-2.33622e-05
-0.00192467
-0.00500738
-0.00918093
-0.0139147
-0.0184808
-0.0222172
-0.024654
-0.0255297
-0.0247239
-0.0223644
-0.0187444
-0.0143056
-0.00965664
-0.00559304
-0.00294983
-0.00219419
-0.00401891
0.00129294
0.000444582
-0.00119786
-0.00430503
-0.00900583
-0.0148816
-0.0210738
-0.0267164
-0.0311924
-0.0341798
-0.0355466
-0.0351906
-0.0331979
-0.0297197
-0.0249003
-0.0189619
-0.0125062
-0.00694928
-0.00440182
-0.00652513
-4.87409e-05
-0.00114801
-0.0035
-0.00779754
-0.0139334
-0.0211154
-0.0282374
-0.034409
-0.03913
-0.0422334
-0.0437211
-0.0436118
-0.0419739
-0.0388799
-0.0343119
-0.0281581
-0.0205399
-0.0127037
-0.0078557
-0.00774889
-0.00245093
-0.00374266
-0.00669919
-0.0119141
-0.0190408
-0.026983
-0.0345054
-0.0407806
-0.0454523
-0.0484785
-0.0499413
-0.0499325
-0.0485317
-0.0457897
-0.0416635
-0.0359277
-0.0283266
-0.0193719
-0.0118232
-0.0079814
-0.00553812
-0.00691574
-0.0102643
-0.0160227
-0.0236592
-0.0318907
-0.0394527
-0.0456144
-0.0501391
-0.0530593
-0.0544885
-0.0545286
-0.0532543
-0.0507272
-0.0469634
-0.0418132
-0.0348689
-0.0259486
-0.01671
-0.00999539
-0.00873427
-0.0100864
-0.0135983
-0.019543
-0.0272874
-0.0354883
-0.0429136
-0.0489114
-0.0533112
-0.0561693
-0.0575933
-0.0576645
-0.056446
-0.0540127
-0.0504526
-0.0457617
-0.0396352
-0.031525
-0.0223221
-0.0143407
-0.0115046
-0.0127585
-0.0162199
-0.0220551
-0.0296081
-0.0375898
-0.0448278
-0.0507009
-0.0550444
-0.057896
-0.0593384
-0.0594299
-0.0582206
-0.0557905
-0.0522882
-0.0478536
-0.0424322
-0.0353836
-0.0271989
-0.0191802
-0.0135499
-0.0146192
-0.0178565
-0.0233162
-0.0304319
-0.0380639
-0.045119
-0.0509512
-0.0553306
-0.0582421
-0.0597299
-0.0598323
-0.0585901
-0.0560846
-0.0525169
-0.0481393
-0.0432079
-0.0370573
-0.0300327
-0.022418
-0.0148379
-0.0155684
-0.0183524
-0.0232109
-0.0296941
-0.0368798
-0.0437657
-0.0496414
-0.0541563
-0.0572025
-0.0587716
-0.0588787
-0.0575593
-0.0549172
-0.0511784
-0.0466569
-0.0419663
-0.0363009
-0.0302268
-0.0228966
-0.0154682
-0.0157225
-0.0177777
-0.0217468
-0.0273903
-0.0340324
-0.0407514
-0.0467416
-0.0514941
-0.0547695
-0.0564835
-0.0566245
-0.0552028
-0.0523541
-0.0483471
-0.0435826
-0.0387313
-0.033142
-0.0281002
-0.0202798
-0.0155748
-0.0152986
-0.0163384
-0.0190882
-0.0236536
-0.0296347
-0.0361723
-0.0423367
-0.0474286
-0.0510405
-0.0529813
-0.0531846
-0.051692
-0.0485923
-0.0442275
-0.0390545
-0.0337823
-0.028072
-0.024232
-0.0143854
-0.0152772
-0.0145505
-0.0142611
-0.0154263
-0.0186853
-0.0238951
-0.030232
-0.0366154
-0.0421387
-0.0462021
-0.0484903
-0.0488673
-0.047354
-0.0440217
-0.0392495
-0.0335194
-0.0276416
-0.0216296
-0.0180538
-0.00383317
-0.0146624
-0.0136185
-0.0117072
-0.0110814
-0.012954
-0.0173807
-0.0235345
-0.030171
-0.036194
-0.0408123
-0.0435795
-0.0442625
-0.0428514
-0.039377
-0.0341858
-0.0276901
-0.0206825
-0.0132764
-0.00678593
0.0160528
-0.0145836
-0.0126575
-0.00864879
-0.00623492
-0.00691038
-0.0107462
-0.0168183
-0.0237405
-0.0302992
-0.0355399
-0.0389043
-0.0400358
-0.0388782
-0.0354486
-0.0298963
-0.0222762
-0.0128728
-0.000688271
0.016695
0.0570638
-0.0117949
-0.011831
-0.0057264
-0.00177529
-0.00176526
-0.00540503
-0.0115755
-0.0188154
-0.0258761
-0.0316881
-0.0356629
-0.0373625
-0.0366859
-0.0333559
-0.0272246
-0.0175418
-0.00314839
0.0204902
0.0607043
0.129821
-0.0295172
-0.01063
-0.000609153
0.00308056
0.00244799
-0.00155729
-0.00799979
-0.0155538
-0.0229766
-0.0291743
-0.0335325
-0.0355886
-0.0352017
-0.0319563
-0.025228
-0.0128603
0.00942245
0.0511714
0.122878
0.226076
)
;

boundaryField
{
    movingWall
    {
        type            zeroGradient;
    }
    fixedWalls
    {
        type            zeroGradient;
    }
    frontAndBack
    {
        type            empty;
    }
}


// ************************************************************************* //
