/*--------------------------------*- C++ -*----------------------------------*\
| =========                 |                                                 |
| \\      /  F ield         | OpenFOAM: The Open Source CFD Toolbox           |
|  \\    /   O peration     | Version:  2212                                  |
|   \\  /    A nd           | Website:  www.openfoam.com                      |
|    \\/     M anipulation  |                                                 |
\*---------------------------------------------------------------------------*/
FoamFile
{
    version     2.0;
    format      ascii;
    arch        "LSB;label=32;scalar=64";
    class       volScalarField;
    location    "20.7";
    object      T;
}
// * * * * * * * * * * * * * * * * * * * * * * * * * * * * * * * * * * * * * //

dimensions      [0 0 0 1 0 0 0];

internalField   nonuniform List<scalar> 
400
(
0.987131
0.987399
0.987943
0.988747
0.989687
0.990548
0.991169
0.991533
0.991732
0.991868
0.991991
0.992119
0.992257
0.992399
0.992525
0.992599
0.992562
0.992355
0.992011
0.991729
0.987473
0.987801
0.988459
0.989403
0.990404
0.991145
0.991511
0.991639
0.991683
0.991716
0.991784
0.991916
0.992119
0.992384
0.992656
0.992856
0.992859
0.992573
0.99212
0.991794
0.988006
0.988448
0.989268
0.990257
0.991038
0.991369
0.991354
0.99119
0.990985
0.99083
0.990803
0.990959
0.9913
0.991815
0.992412
0.992955
0.993218
0.992974
0.992319
0.991914
0.988527
0.989087
0.989983
0.990785
0.991124
0.990964
0.990513
0.98994
0.989375
0.988957
0.988794
0.988974
0.989477
0.990312
0.991365
0.992473
0.993335
0.993554
0.992831
0.992192
0.988929
0.989555
0.990379
0.990821
0.990635
0.989941
0.988972
0.987906
0.986932
0.986221
0.9859
0.986074
0.986714
0.987843
0.98936
0.991099
0.992756
0.993863
0.993747
0.992708
0.989191
0.989813
0.990446
0.990445
0.989711
0.988466
0.986957
0.985408
0.984057
0.983087
0.982627
0.98276
0.983484
0.984811
0.986674
0.988932
0.991319
0.993392
0.994426
0.993463
0.989335
0.989887
0.990259
0.989808
0.988562
0.986806
0.984814
0.98287
0.981237
0.980095
0.979551
0.979647
0.980398
0.981808
0.983851
0.986442
0.989363
0.992205
0.994317
0.994545
0.989392
0.989844
0.989954
0.989107
0.987421
0.985228
0.982851
0.980619
0.978809
0.97758
0.977002
0.977084
0.977827
0.979231
0.9813
0.984025
0.987289
0.990723
0.993652
0.995124
0.989392
0.989736
0.989616
0.988453
0.986425
0.983906
0.981258
0.978842
0.97693
0.97566
0.975069
0.975145
0.975873
0.977236
0.979239
0.981928
0.985335
0.989216
0.9928
0.994859
0.989356
0.989612
0.989334
0.987974
0.985725
0.982991
0.980166
0.977631
0.975652
0.974347
0.973732
0.973791
0.974501
0.97583
0.97775
0.98031
0.983671
0.987821
0.992029
0.994658
0.989295
0.989491
0.989127
0.987671
0.985317
0.982484
0.979584
0.976999
0.974981
0.973636
0.972976
0.972992
0.973666
0.974957
0.976804
0.979207
0.98239
0.986613
0.991313
0.994529
0.989219
0.989387
0.989021
0.9876
0.985275
0.982462
0.979577
0.976991
0.974947
0.973554
0.972833
0.97278
0.973384
0.974606
0.976365
0.978599
0.981519
0.985658
0.990739
0.994459
0.989124
0.989294
0.988981
0.987687
0.985504
0.982825
0.980055
0.977544
0.975528
0.974117
0.973342
0.973207
0.973707
0.974807
0.976425
0.978463
0.981063
0.98496
0.990286
0.994452
0.989005
0.989204
0.989005
0.98794
0.986029
0.983609
0.981061
0.978707
0.97677
0.975368
0.974547
0.974309
0.974665
0.975579
0.97698
0.97876
0.980998
0.984554
0.989994
0.994494
0.988849
0.989092
0.989004
0.98819
0.986617
0.984557
0.982343
0.98026
0.978507
0.977194
0.976377
0.976055
0.976245
0.976921
0.978026
0.979487
0.981338
0.984438
0.989842
0.994589
0.988665
0.988964
0.989021
0.9885
0.987338
0.985731
0.983947
0.982223
0.980729
0.979563
0.978778
0.978384
0.978384
0.978774
0.979518
0.980584
0.982017
0.984565
0.989838
0.994738
0.988482
0.988775
0.98888
0.988572
0.98779
0.986663
0.985377
0.984106
0.982974
0.982057
0.981388
0.980987
0.980842
0.980968
0.981363
0.982023
0.983078
0.985141
0.990146
0.994992
0.988352
0.988711
0.988926
0.988799
0.988356
0.987675
0.986864
0.98603
0.985249
0.98458
0.984044
0.983665
0.98344
0.983384
0.983533
0.983872
0.984647
0.986232
0.990723
0.995312
0.986592
0.988315
0.988306
0.98824
0.988001
0.987684
0.987324
0.986989
0.986681
0.986454
0.986288
0.986212
0.986216
0.986293
0.986503
0.986772
0.987462
0.988664
0.992068
0.99586
0.990583
0.991721
0.992329
0.992693
0.992887
0.993008
0.993071
0.993135
0.99318
0.993251
0.993314
0.99341
0.9935
0.993621
0.993739
0.993902
0.994111
0.994552
0.995432
0.996982
)
;

boundaryField
{
    movingWall
    {
        type            fixedValue;
        value           uniform 1;
    }
    fixedWalls
    {
        type            zeroGradient;
    }
    frontAndBack
    {
        type            empty;
    }
}


// ************************************************************************* //
