/*--------------------------------*- C++ -*----------------------------------*\
| =========                 |                                                 |
| \\      /  F ield         | OpenFOAM: The Open Source CFD Toolbox           |
|  \\    /   O peration     | Version:  2212                                  |
|   \\  /    A nd           | Website:  www.openfoam.com                      |
|    \\/     M anipulation  |                                                 |
\*---------------------------------------------------------------------------*/
FoamFile
{
    version     2.0;
    format      ascii;
    arch        "LSB;label=32;scalar=64";
    class       surfaceScalarField;
    location    "0.6";
    object      phi;
}
// * * * * * * * * * * * * * * * * * * * * * * * * * * * * * * * * * * * * * //

dimensions      [0 3 -1 0 0 0 0];

oriented        oriented;

internalField   nonuniform List<scalar> 
760
(
-3.70886e-08
3.70885e-08
-1.24473e-07
8.73848e-08
-2.3208e-07
1.07606e-07
-3.46918e-07
1.14839e-07
-4.66009e-07
1.1909e-07
-5.89188e-07
1.23179e-07
-7.15963e-07
1.26775e-07
-8.4408e-07
1.28117e-07
-9.68462e-07
1.24383e-07
-1.08013e-06
1.11672e-07
-1.16541e-06
8.52723e-08
-1.20613e-06
4.07221e-08
-1.1807e-06
-2.54284e-08
-1.07269e-06
-1.08012e-07
-8.78686e-07
-1.94002e-07
-6.20324e-07
-2.58362e-07
-3.47253e-07
-2.73071e-07
-1.24362e-07
-2.2289e-07
-5.31122e-09
-1.19051e-07
-5.31106e-09
-9.93213e-08
1.3641e-07
-2.83635e-07
2.71698e-07
-5.02546e-07
3.26518e-07
-7.35694e-07
3.47986e-07
-9.75859e-07
3.59256e-07
-1.21996e-06
3.67281e-07
-1.46441e-06
3.71223e-07
-1.70267e-06
3.66377e-07
-1.92363e-06
3.45343e-07
-2.11033e-06
2.98371e-07
-2.23944e-06
2.14381e-07
-2.28252e-06
8.38086e-08
-2.21005e-06
-9.78978e-08
-1.99639e-06
-3.21681e-07
-1.64089e-06
-5.49496e-07
-1.17964e-06
-7.19611e-07
-6.93448e-07
-7.59265e-07
-2.88919e-07
-6.27419e-07
-5.01651e-08
-3.57805e-07
-5.54761e-08
-1.33639e-07
2.70049e-07
-3.70683e-07
5.08742e-07
-6.47748e-07
6.03582e-07
-9.40856e-07
6.41094e-07
-1.24119e-06
6.5959e-07
-1.54445e-06
6.70544e-07
-1.84581e-06
6.72577e-07
-2.13729e-06
6.57863e-07
-2.4061e-06
6.14154e-07
-2.63312e-06
5.25392e-07
-2.79194e-06
3.73196e-07
-2.84958e-06
1.41452e-07
-2.76761e-06
-1.79867e-07
-2.50976e-06
-5.79536e-07
-2.0642e-06
-9.9505e-07
-1.4692e-06
-1.31462e-06
-8.34148e-07
-1.39431e-06
-3.17702e-07
-1.14386e-06
-3.97177e-08
-6.3579e-07
-9.51938e-08
-1.48748e-07
4.18798e-07
-4.11666e-07
7.7166e-07
-7.17556e-07
9.09472e-07
-1.04045e-06
9.63986e-07
-1.37155e-06
9.90695e-07
-1.70726e-06
1.00625e-06
-2.04382e-06
1.00914e-06
-2.37477e-06
9.8881e-07
-2.68905e-06
9.28433e-07
-2.96898e-06
8.05321e-07
-3.18772e-06
5.91943e-07
-3.30738e-06
2.61113e-07
-3.27891e-06
-2.08344e-07
-3.03633e-06
-8.22116e-07
-2.53542e-06
-1.49595e-06
-1.79868e-06
-2.05135e-06
-9.69521e-07
-2.22348e-06
-2.98267e-07
-1.81512e-06
8.87563e-09
-9.42932e-07
-8.63183e-08
-1.52824e-07
5.71622e-07
-4.2532e-07
1.04416e-06
-7.43293e-07
1.22745e-06
-1.08016e-06
1.30085e-06
-1.42822e-06
1.33875e-06
-1.78599e-06
1.36403e-06
-2.15285e-06
1.37599e-06
-2.52643e-06
1.3624e-06
-2.90071e-06
1.30271e-06
-3.26344e-06
1.16805e-06
-3.5918e-06
9.20296e-07
-3.84381e-06
5.13124e-07
-3.96451e-06
-8.76424e-08
-3.83096e-06
-9.55667e-07
-3.33694e-06
-1.98997e-06
-2.45029e-06
-2.93801e-06
-1.33647e-06
-3.3373e-06
-3.66403e-07
-2.78519e-06
7.63298e-08
-1.38567e-06
-9.98864e-09
-1.50206e-07
7.21828e-07
-4.22219e-07
1.31617e-06
-7.42132e-07
1.54736e-06
-1.08373e-06
1.64245e-06
-1.44105e-06
1.69607e-06
-1.81583e-06
1.73881e-06
-2.21223e-06
1.77239e-06
-2.63466e-06
1.78483e-06
-3.08617e-06
1.75422e-06
-3.56609e-06
1.64797e-06
-4.06528e-06
1.41949e-06
-4.55184e-06
9.99679e-07
-4.94106e-06
3.01579e-07
-5.08165e-06
-8.15071e-07
-4.72727e-06
-2.34435e-06
-3.74781e-06
-3.91747e-06
-2.29118e-06
-4.79393e-06
-7.95231e-07
-4.28114e-06
5.97078e-08
-2.2406e-06
4.9719e-08
-1.42944e-07
8.64772e-07
-4.07474e-07
1.5807e-06
-7.21978e-07
1.86186e-06
-1.06102e-06
1.98149e-06
-1.42063e-06
2.05567e-06
-1.80625e-06
2.12443e-06
-2.22807e-06
2.19421e-06
-2.69972e-06
2.25648e-06
-3.2379e-06
2.29239e-06
-3.86178e-06
2.27186e-06
-4.58979e-06
2.1475e-06
-5.41537e-06
1.82525e-06
-6.2255e-06
1.11171e-06
-6.81448e-06
-2.26091e-07
-6.75198e-06
-2.40685e-06
-5.8388e-06
-4.83065e-06
-4.13811e-06
-6.49462e-06
-1.96038e-06
-6.45887e-06
-2.14357e-07
-3.98662e-06
-1.64638e-07
-1.31965e-07
9.96737e-07
-3.83278e-07
1.83201e-06
-6.85707e-07
2.16429e-06
-1.01446e-06
2.31024e-06
-1.36717e-06
2.40838e-06
-1.75289e-06
2.51015e-06
-2.18821e-06
2.62953e-06
-2.69755e-06
2.76582e-06
-3.31554e-06
2.91039e-06
-4.08875e-06
3.04507e-06
-5.06926e-06
3.12801e-06
-6.27263e-06
3.02862e-06
-7.5657e-06
2.40479e-06
-8.54815e-06
7.56359e-07
-8.8461e-06
-2.1089e-06
-8.22504e-06
-5.45172e-06
-6.62338e-06
-8.09628e-06
-3.98873e-06
-9.09353e-06
-1.0029e-06
-6.97245e-06
-1.16754e-06
-1.17924e-07
1.11466e-06
-3.50961e-07
2.06505e-06
-6.34589e-07
2.44792e-06
-9.43943e-07
2.6196e-06
-1.2773e-06
2.74174e-06
-1.64615e-06
2.879e-06
-2.07208e-06
3.05546e-06
-2.58881e-06
3.28255e-06
-3.24711e-06
3.56869e-06
-4.11653e-06
3.91448e-06
-5.26585e-06
4.27734e-06
-6.69315e-06
4.45591e-06
-8.20536e-06
3.91699e-06
-9.37997e-06
1.93097e-06
-9.86589e-06
-1.62298e-06
-9.67791e-06
-5.63969e-06
-8.62846e-06
-9.14573e-06
-6.23365e-06
-1.14883e-05
-2.43721e-06
-1.07689e-05
-3.60475e-06
-1.01867e-07
1.21653e-06
-3.12624e-07
2.27581e-06
-5.70967e-07
2.70626e-06
-8.50828e-07
2.89946e-06
-1.14958e-06
3.04049e-06
-1.4789e-06
3.20832e-06
-1.86185e-06
3.43841e-06
-2.33526e-06
3.75597e-06
-2.95477e-06
4.18819e-06
-3.79188e-06
4.7516e-06
-4.89544e-06
5.3809e-06
-6.2025e-06
5.76298e-06
-7.4825e-06
5.19699e-06
-8.46941e-06
2.91788e-06
-8.9751e-06
-1.11729e-06
-9.1627e-06
-5.4521e-06
-8.81685e-06
-9.49158e-06
-7.33393e-06
-1.29712e-05
-3.96027e-06
-1.41426e-05
-7.56501e-06
-8.57379e-08
1.30227e-06
-2.72348e-07
2.46242e-06
-5.00231e-07
2.93415e-06
-7.40783e-07
3.14001e-06
-9.88761e-07
3.28847e-06
-1.25306e-06
3.47263e-06
-1.55265e-06
3.738e-06
-1.91687e-06
4.12018e-06
-2.38636e-06
4.65768e-06
-3.00486e-06
5.37009e-06
-3.78274e-06
6.15878e-06
-4.6375e-06
6.61774e-06
-5.40494e-06
5.96443e-06
-6.01039e-06
3.52333e-06
-6.52684e-06
-6.00839e-07
-6.91892e-06
-5.06002e-06
-7.1354e-06
-9.2751e-06
-6.66957e-06
-1.34371e-05
-4.38701e-06
-1.64251e-05
-1.1952e-05
-7.28203e-08
1.37509e-06
-2.37128e-07
2.62672e-06
-4.32094e-07
3.12911e-06
-6.25597e-07
3.33351e-06
-8.0888e-07
3.47175e-06
-9.85876e-07
3.64962e-06
-1.16687e-06
3.91899e-06
-1.3656e-06
4.31892e-06
-1.59598e-06
4.88806e-06
-1.86334e-06
5.63746e-06
-2.15772e-06
6.45316e-06
-2.44506e-06
6.90507e-06
-2.699e-06
6.21837e-06
-2.99587e-06
3.8202e-06
-3.51556e-06
-8.11507e-08
-4.06968e-06
-4.5059e-06
-4.71931e-06
-8.62547e-06
-5.04732e-06
-1.31091e-05
-3.69175e-06
-1.77807e-05
-1.56438e-05
-6.79241e-08
1.44301e-06
-2.17288e-07
2.77609e-06
-3.81281e-07
3.29311e-06
-5.23794e-07
3.47603e-06
-6.33536e-07
3.58149e-06
-7.0995e-07
3.72603e-06
-7.53976e-07
3.96302e-06
-7.62795e-07
4.32774e-06
-7.26169e-07
4.85143e-06
-6.14314e-07
5.5256e-06
-4.25698e-07
6.26455e-06
-2.11307e-07
6.69068e-06
-1.1337e-07
6.12043e-06
-1.89399e-07
3.89623e-06
-6.01299e-07
3.30749e-07
-1.34726e-06
-3.75994e-06
-2.39142e-06
-7.5813e-06
-3.36445e-06
-1.2136e-05
-2.79597e-06
-1.83492e-05
-1.84397e-05
-7.89903e-08
1.522e-06
-2.27885e-07
2.92498e-06
-3.66237e-07
3.43146e-06
-4.56815e-07
3.5666e-06
-4.90083e-07
3.61476e-06
-4.6378e-07
3.69973e-06
-3.72099e-07
3.87134e-06
-1.98936e-07
4.15458e-06
8.99526e-08
4.56254e-06
5.05317e-07
5.11024e-06
1.07877e-06
5.69109e-06
1.74644e-06
6.02302e-06
2.29969e-06
5.56718e-06
2.4264e-06
3.76952e-06
1.98866e-06
7.68495e-07
1.08591e-06
-2.85719e-06
-2.22514e-07
-6.27288e-06
-1.70351e-06
-1.06551e-05
-1.94283e-06
-1.81098e-05
-2.03826e-05
-1.16734e-07
1.63873e-06
-2.9018e-07
3.09843e-06
-4.15243e-07
3.55652e-06
-4.54349e-07
3.60571e-06
-4.09942e-07
3.57035e-06
-2.8577e-07
3.57556e-06
-7.52546e-08
3.66082e-06
2.42299e-07
3.83702e-06
6.86104e-07
4.11874e-06
1.30783e-06
4.48851e-06
2.12449e-06
4.87443e-06
3.06559e-06
5.08192e-06
3.88609e-06
4.74668e-06
4.22606e-06
3.42955e-06
3.88142e-06
1.11313e-06
2.86727e-06
-1.84304e-06
1.31819e-06
-4.7238e-06
-4.6558e-07
-8.87128e-06
-1.20532e-06
-1.73701e-05
-2.15879e-05
-1.96959e-07
1.83569e-06
-4.24638e-07
3.32611e-06
-5.37859e-07
3.66974e-06
-5.25012e-07
3.59286e-06
-4.07423e-07
3.45276e-06
-1.96793e-07
3.36493e-06
1.10815e-07
3.35321e-06
5.28733e-07
3.4191e-06
1.08662e-06
3.56085e-06
1.81559e-06
3.75954e-06
2.72465e-06
3.96538e-06
3.75007e-06
4.0565e-06
4.67728e-06
3.81947e-06
5.16323e-06
2.9436e-06
4.93807e-06
1.33829e-06
3.93399e-06
-8.38957e-07
2.31078e-06
-3.10059e-06
4.41134e-07
-7.00163e-06
-5.22496e-07
-1.64065e-05
-2.21104e-05
-3.85151e-07
2.22084e-06
-7.75155e-07
3.71611e-06
-8.53121e-07
3.74771e-06
-7.24478e-07
3.46422e-06
-4.98519e-07
3.22681e-06
-1.99354e-07
3.06576e-06
1.84123e-07
2.96974e-06
6.75182e-07
2.92804e-06
1.29553e-06
2.9405e-06
2.06596e-06
2.98911e-06
2.97955e-06
3.05178e-06
3.98421e-06
3.05184e-06
4.90463e-06
2.89905e-06
5.45762e-06
2.39061e-06
5.3199e-06
1.47602e-06
4.46559e-06
1.53465e-08
3.00653e-06
-1.64153e-06
1.52299e-06
-5.51809e-06
3.06923e-07
-1.51904e-05
-2.18035e-05
-3.9728e-07
2.61812e-06
-8.68119e-07
4.18695e-06
-1.04574e-06
3.92533e-06
-9.89839e-07
3.40832e-06
-7.6579e-07
3.00276e-06
-4.22452e-07
2.72243e-06
3.1828e-08
2.51546e-06
6.00859e-07
2.35901e-06
1.28686e-06
2.2545e-06
2.09961e-06
2.17636e-06
3.01044e-06
2.14095e-06
3.98629e-06
2.07599e-06
4.89042e-06
1.99492e-06
5.53123e-06
1.74981e-06
5.66057e-06
1.34668e-06
5.16079e-06
5.15119e-07
4.38234e-06
-8.63078e-07
3.33193e-06
-4.46768e-06
1.57368e-06
-1.34322e-05
-2.02298e-05
-3.92359e-06
6.54172e-06
-3.73912e-06
4.00248e-06
-2.52666e-06
2.71287e-06
-1.34187e-06
2.22353e-06
-2.54901e-07
1.91579e-06
8.02162e-07
1.66536e-06
1.84479e-06
1.47282e-06
2.8935e-06
1.3103e-06
3.94249e-06
1.20551e-06
5.01173e-06
1.10712e-06
6.08857e-06
1.06411e-06
7.16619e-06
9.98382e-07
8.17791e-06
9.83187e-07
9.04733e-06
8.80391e-07
9.66941e-06
7.24601e-07
9.8736e-06
3.10933e-07
9.69761e-06
-6.87095e-07
8.95459e-06
-3.72466e-06
5.18762e-06
-9.6652e-06
-1.50422e-05
6.54172e-06
1.05442e-05
1.32571e-05
1.54806e-05
1.73964e-05
1.90617e-05
2.05346e-05
2.18449e-05
2.30504e-05
2.41575e-05
2.52216e-05
2.622e-05
2.72032e-05
2.80836e-05
2.88082e-05
2.91191e-05
2.8432e-05
2.47074e-05
1.50422e-05
)
;

boundaryField
{
    movingWall
    {
        type            calculated;
        value           uniform 0;
    }
    fixedWalls
    {
        type            calculated;
        value           uniform 0;
    }
    frontAndBack
    {
        type            empty;
        value           nonuniform List<scalar> 0();
    }
}


// ************************************************************************* //
