/*--------------------------------*- C++ -*----------------------------------*\
| =========                 |                                                 |
| \\      /  F ield         | OpenFOAM: The Open Source CFD Toolbox           |
|  \\    /   O peration     | Version:  2212                                  |
|   \\  /    A nd           | Website:  www.openfoam.com                      |
|    \\/     M anipulation  |                                                 |
\*---------------------------------------------------------------------------*/
FoamFile
{
    version     2.0;
    format      ascii;
    arch        "LSB;label=32;scalar=64";
    class       volScalarField;
    location    "8.5";
    object      p;
}
// * * * * * * * * * * * * * * * * * * * * * * * * * * * * * * * * * * * * * //

dimensions      [0 2 -2 0 0 0 0];

internalField   nonuniform List<scalar> 
400
(
4.53066e-07
-0.000150523
-0.00053455
-0.00107169
-0.00173235
-0.00249373
-0.00318479
-0.00359731
-0.00356508
-0.00293384
-0.00154838
0.000619414
0.00324954
0.00551414
0.00653416
0.00592381
0.00400347
0.00215128
0.0011123
0.00104321
0.000116359
-5.80374e-05
-0.000376936
-0.000764071
-0.00124395
-0.00188801
-0.00270601
-0.00354321
-0.00407961
-0.00393802
-0.00284612
-0.000824686
0.00168947
0.00396112
0.00512525
0.00474414
0.00310453
0.00137643
0.000594851
0.000685824
0.000536423
0.000265
-7.72432e-05
-0.00055955
-0.00134716
-0.00258038
-0.00421867
-0.00598303
-0.00740158
-0.0079428
-0.0072632
-0.00546116
-0.00289097
-0.000193991
0.00179259
0.00242894
0.00171038
0.000503836
-0.000394344
-0.000391147
0.00115181
0.00074118
0.000191884
-0.000774702
-0.00245081
-0.00493715
-0.00799394
-0.0111187
-0.0137011
-0.0151744
-0.0152043
-0.0138375
-0.0112915
-0.00802731
-0.00475068
-0.00220822
-0.000868861
-0.000704664
-0.00128724
-0.00191661
0.00158298
0.000973488
-2.29338e-05
-0.00192385
-0.0050059
-0.00917854
-0.0139112
-0.0184763
-0.0222119
-0.024648
-0.0255235
-0.024718
-0.0223591
-0.0187398
-0.0143016
-0.00965326
-0.00559013
-0.00294724
-0.00219175
-0.00401631
0.00129288
0.000444704
-0.00119734
-0.00430376
-0.00900345
-0.0148778
-0.0210685
-0.0267096
-0.0311844
-0.0341709
-0.0355374
-0.0351817
-0.0331897
-0.0297124
-0.0248943
-0.018957
-0.0125023
-0.00694627
-0.00439922
-0.00652229
-4.87679e-05
-0.00114779
-0.00349916
-0.00779557
-0.0139298
-0.0211099
-0.0282299
-0.0343996
-0.039119
-0.0422213
-0.0437086
-0.0435994
-0.0419624
-0.0388697
-0.0343033
-0.0281512
-0.0205346
-0.0126999
-0.00785274
-0.00774626
-0.00245067
-0.00374209
-0.00669778
-0.0119113
-0.0190359
-0.0269757
-0.0344957
-0.0407686
-0.0454384
-0.0484632
-0.0499252
-0.0499167
-0.0485169
-0.0457764
-0.0416522
-0.0359186
-0.0283196
-0.0193668
-0.0118197
-0.0079789
-0.00553737
-0.00691461
-0.0102622
-0.0160189
-0.0236529
-0.0318818
-0.039441
-0.0456001
-0.0501224
-0.0530408
-0.0544691
-0.0545093
-0.0532361
-0.050711
-0.0469496
-0.041802
-0.0348601
-0.0259421
-0.0167055
-0.00999231
-0.00873295
-0.0100847
-0.0135955
-0.0195382
-0.02728
-0.035478
-0.0429002
-0.0488951
-0.0532923
-0.0561484
-0.0575713
-0.0576425
-0.0564252
-0.0539941
-0.0504366
-0.0457487
-0.039625
-0.0315172
-0.0223165
-0.0143365
-0.0115028
-0.0127563
-0.0162165
-0.0220497
-0.0295999
-0.0375786
-0.0448134
-0.0506833
-0.0550241
-0.0578735
-0.0593148
-0.0594063
-0.0581982
-0.0557703
-0.052271
-0.0478395
-0.0424212
-0.0353751
-0.0271924
-0.0191749
-0.0135478
-0.0146167
-0.0178528
-0.0233105
-0.0304235
-0.0380524
-0.0451043
-0.0509333
-0.0553099
-0.0582193
-0.0597058
-0.0598082
-0.0585673
-0.0560641
-0.0524994
-0.0481251
-0.0431969
-0.0370488
-0.0300261
-0.0224124
-0.0148357
-0.0155658
-0.0183488
-0.0232054
-0.0296861
-0.0368688
-0.0437516
-0.0496242
-0.0541362
-0.0571803
-0.0587483
-0.0588554
-0.0575373
-0.0548976
-0.0511618
-0.0466437
-0.0419564
-0.0362935
-0.0302209
-0.0228915
-0.0154661
-0.0157202
-0.0177745
-0.021742
-0.0273832
-0.0340226
-0.0407387
-0.0467259
-0.0514757
-0.0547491
-0.056462
-0.0566031
-0.0551826
-0.0523363
-0.0483325
-0.0435714
-0.0387234
-0.0331365
-0.0280957
-0.0202762
-0.0155728
-0.0152966
-0.0163359
-0.0190845
-0.023648
-0.0296268
-0.0361616
-0.0423232
-0.0474127
-0.0510226
-0.0529624
-0.0531658
-0.0516745
-0.0485772
-0.0442156
-0.039046
-0.0337771
-0.0280692
-0.0242297
-0.014384
-0.0152754
-0.0145488
-0.0142593
-0.0154238
-0.0186815
-0.0238894
-0.0302239
-0.0366047
-0.0421256
-0.0461872
-0.0484744
-0.0488515
-0.0473395
-0.0440096
-0.0392406
-0.033514
-0.0276394
-0.0216297
-0.0180548
-0.00383456
-0.0146609
-0.0136172
-0.0117061
-0.0110803
-0.0129521
-0.0173773
-0.0235291
-0.0301632
-0.0361838
-0.0408003
-0.0435665
-0.0442496
-0.0428397
-0.0393677
-0.0341797
-0.0276876
-0.0206833
-0.0132796
-0.00679051
0.0160488
-0.0145825
-0.0126566
-0.00864847
-0.00623511
-0.00691032
-0.010745
-0.0168152
-0.0237352
-0.0302917
-0.0355306
-0.038894
-0.0400254
-0.038869
-0.0354415
-0.0298924
-0.0222759
-0.0128761
-0.000694343
0.0166877
0.0570578
-0.0117943
-0.0118306
-0.0057269
-0.00177661
-0.00176657
-0.00540544
-0.0115743
-0.0188119
-0.0258704
-0.0316805
-0.0356543
-0.0373537
-0.036678
-0.03335
-0.0272218
-0.0175428
-0.00315305
0.0204827
0.060696
0.129815
-0.0295163
-0.0106299
-0.00061014
0.00307873
0.00244611
-0.00155833
-0.00799919
-0.0155511
-0.0229717
-0.0291675
-0.0335245
-0.0355803
-0.0351943
-0.0319507
-0.0252252
-0.0128609
0.00941823
0.0511646
0.122871
0.22607
)
;

boundaryField
{
    movingWall
    {
        type            zeroGradient;
    }
    fixedWalls
    {
        type            zeroGradient;
    }
    frontAndBack
    {
        type            empty;
    }
}


// ************************************************************************* //
