/*--------------------------------*- C++ -*----------------------------------*\
| =========                 |                                                 |
| \\      /  F ield         | OpenFOAM: The Open Source CFD Toolbox           |
|  \\    /   O peration     | Version:  2212                                  |
|   \\  /    A nd           | Website:  www.openfoam.com                      |
|    \\/     M anipulation  |                                                 |
\*---------------------------------------------------------------------------*/
FoamFile
{
    version     2.0;
    format      ascii;
    arch        "LSB;label=32;scalar=64";
    class       volVectorField;
    location    "8.5";
    object      U;
}
// * * * * * * * * * * * * * * * * * * * * * * * * * * * * * * * * * * * * * //

dimensions      [0 1 -1 0 0 0 0];

internalField   nonuniform List<vector> 
400
(
(0.00168154 -0.00168349 0)
(0.00483783 -0.00189191 0)
(0.00658974 -0.00120055 0)
(0.00567326 -0.000575027 0)
(0.00157079 0.000184065 0)
(-0.00682998 0.00173935 0)
(-0.0206079 0.00478595 0)
(-0.0395392 0.00873519 0)
(-0.0608078 0.0112917 0)
(-0.0791336 0.010512 0)
(-0.0898092 0.00677458 0)
(-0.0904609 0.00166948 0)
(-0.0802256 -0.00361566 0)
(-0.0599955 -0.00827407 0)
(-0.0335244 -0.0108465 0)
(-0.00529734 -0.00979503 0)
(0.0167191 -0.00477372 0)
(0.0244672 0.00277603 0)
(0.0161773 0.00647152 0)
(0.00431631 0.00471679 0)
(0.00172003 -0.00506416 0)
(0.00316134 -0.00403133 0)
(-0.000418885 0.000588262 0)
(-0.0113313 0.00644157 0)
(-0.031426 0.0140493 0)
(-0.0611475 0.0237721 0)
(-0.0968416 0.033059 0)
(-0.131453 0.0370901 0)
(-0.158965 0.0335157 0)
(-0.176096 0.0234009 0)
(-0.181444 0.00911018 0)
(-0.175074 -0.00698814 0)
(-0.157558 -0.0231716 0)
(-0.129649 -0.0369115 0)
(-0.0936148 -0.0445636 0)
(-0.0521966 -0.0418379 0)
(-0.0114034 -0.0263351 0)
(0.0168861 -0.00128128 0)
(0.0178703 0.0162217 0)
(0.0055419 0.0148189 0)
(-0.000240052 -0.00577861 0)
(-0.00538209 0.000803412 0)
(-0.0196101 0.0142995 0)
(-0.0445033 0.0312345 0)
(-0.080338 0.0494425 0)
(-0.122199 0.0643164 0)
(-0.162342 0.0705423 0)
(-0.195263 0.0660253 0)
(-0.218855 0.0521891 0)
(-0.232523 0.0315337 0)
(-0.236279 0.00641805 0)
(-0.230794 -0.0211101 0)
(-0.216382 -0.0488688 0)
(-0.192538 -0.0732225 0)
(-0.159002 -0.089023 0)
(-0.11574 -0.0892278 0)
(-0.0645631 -0.0670294 0)
(-0.0138232 -0.0226678 0)
(0.00948023 0.0179151 0)
(0.00415541 0.0235783 0)
(-0.00347204 0.000455407 0)
(-0.0175147 0.0172418 0)
(-0.0435153 0.0414998 0)
(-0.0796797 0.0681916 0)
(-0.122954 0.0911562 0)
(-0.165846 0.103843 0)
(-0.201915 0.102898 0)
(-0.229237 0.0896677 0)
(-0.248076 0.0673239 0)
(-0.25903 0.0385795 0)
(-0.262938 0.00531966 0)
(-0.260606 -0.0311126 0)
(-0.251974 -0.0684492 0)
(-0.235997 -0.103737 0)
(-0.210687 -0.131485 0)
(-0.173342 -0.142887 0)
(-0.1214 -0.125764 0)
(-0.0568443 -0.070855 0)
(-0.00098807 0.00356235 0)
(0.00474226 0.0282384 0)
(-0.00666257 0.0147846 0)
(-0.0287291 0.0441116 0)
(-0.0632882 0.0770932 0)
(-0.104459 0.108917 0)
(-0.147277 0.131205 0)
(-0.184575 0.138193 0)
(-0.212913 0.1295 0)
(-0.232695 0.108744 0)
(-0.245212 0.0797955 0)
(-0.252187 0.0454474 0)
(-0.255306 0.00724293 0)
(-0.255488 -0.0339924 0)
(-0.25251 -0.0770761 0)
(-0.24583 -0.120679 0)
(-0.232637 -0.160816 0)
(-0.208316 -0.189027 0)
(-0.166817 -0.189979 0)
(-0.103447 -0.14288 0)
(-0.022183 -0.0388569 0)
(0.00738135 0.0270985 0)
(-0.00851057 0.0348745 0)
(-0.0351764 0.0766396 0)
(-0.0730913 0.114953 0)
(-0.113262 0.147701 0)
(-0.150525 0.166033 0)
(-0.179387 0.16597 0)
(-0.198911 0.14976 0)
(-0.210656 0.122502 0)
(-0.216604 0.088543 0)
(-0.219234 0.0508699 0)
(-0.220503 0.0109579 0)
(-0.221404 -0.0307516 0)
(-0.222138 -0.0747119 0)
(-0.222813 -0.121281 0)
(-0.221244 -0.169227 0)
(-0.212344 -0.213061 0)
(-0.188027 -0.238591 0)
(-0.139688 -0.218544 0)
(-0.062849 -0.118945 0)
(0.00584803 0.0142014 0)
(-0.00829268 0.0570064 0)
(-0.0353416 0.110012 0)
(-0.0718367 0.150497 0)
(-0.107077 0.181188 0)
(-0.136712 0.193882 0)
(-0.157118 0.186487 0)
(-0.169028 0.163324 0)
(-0.174564 0.130541 0)
(-0.176136 0.0928976 0)
(-0.176233 0.053408 0)
(-0.176345 0.0133167 0)
(-0.177146 -0.0273032 0)
(-0.17918 -0.069566 0)
(-0.182991 -0.114716 0)
(-0.187943 -0.163849 0)
(-0.190417 -0.215819 0)
(-0.182532 -0.261673 0)
(-0.154283 -0.275193 0)
(-0.0994033 -0.205919 0)
(-0.00890829 -0.0146269 0)
(-0.00613564 0.0776023 0)
(-0.0297933 0.140565 0)
(-0.0614292 0.181235 0)
(-0.0899004 0.20835 0)
(-0.11191 0.214939 0)
(-0.125447 0.200613 0)
(-0.132136 0.171381 0)
(-0.134285 0.134219 0)
(-0.134345 0.0941063 0)
(-0.134243 0.0537467 0)
(-0.134648 0.0138648 0)
(-0.135741 -0.0258807 0)
(-0.137975 -0.0664701 0)
(-0.142042 -0.109084 0)
(-0.148559 -0.155671 0)
(-0.156227 -0.208588 0)
(-0.159086 -0.265917 0)
(-0.14676 -0.308155 0)
(-0.112261 -0.277229 0)
(-0.0309667 -0.0753417 0)
(-0.00273011 0.0936218 0)
(-0.02042 0.165657 0)
(-0.0451564 0.205627 0)
(-0.0663528 0.228619 0)
(-0.0816221 0.229581 0)
(-0.0901127 0.209594 0)
(-0.0937438 0.175842 0)
(-0.0946539 0.135805 0)
(-0.0949291 0.0944619 0)
(-0.0957225 0.0540251 0)
(-0.0970711 0.014594 0)
(-0.0988806 -0.0245766 0)
(-0.101318 -0.0642188 0)
(-0.104887 -0.104984 0)
(-0.110736 -0.148463 0)
(-0.119602 -0.198585 0)
(-0.128358 -0.259819 0)
(-0.126533 -0.323486 0)
(-0.107487 -0.334792 0)
(-0.0373518 -0.16345 0)
(0.00121946 0.102768 0)
(-0.00894411 0.183499 0)
(-0.0256477 0.223183 0)
(-0.0396476 0.242804 0)
(-0.0491274 0.239569 0)
(-0.0540001 0.215595 0)
(-0.0559686 0.178839 0)
(-0.0566798 0.137142 0)
(-0.0576388 0.0953903 0)
(-0.0593794 0.0552624 0)
(-0.0616714 0.0163088 0)
(-0.0643713 -0.0224835 0)
(-0.0674703 -0.0617223 0)
(-0.0711468 -0.101608 0)
(-0.0763329 -0.142811 0)
(-0.0845988 -0.188955 0)
(-0.09607 -0.248382 0)
(-0.100657 -0.324352 0)
(-0.0951779 -0.372258 0)
(-0.0309247 -0.242602 0)
(0.00511848 0.103934 0)
(0.00295761 0.1931 0)
(-0.00539006 0.233678 0)
(-0.0125071 0.250837 0)
(-0.0168979 0.244751 0)
(-0.0187846 0.218534 0)
(-0.0194721 0.180472 0)
(-0.0199994 0.138397 0)
(-0.0212967 0.0969431 0)
(-0.0235319 0.0574112 0)
(-0.0264203 0.0190792 0)
(-0.0299033 -0.0191595 0)
(-0.0339973 -0.0579612 0)
(-0.038641 -0.0973783 0)
(-0.0443802 -0.137329 0)
(-0.0524422 -0.180199 0)
(-0.0657615 -0.235679 0)
(-0.0742238 -0.318128 0)
(-0.0812013 -0.396763 0)
(-0.0229428 -0.307161 0)
(0.00845742 0.0974605 0)
(0.0142208 0.194093 0)
(0.014104 0.237201 0)
(0.0137097 0.253617 0)
(0.0143328 0.246537 0)
(0.01553 0.219829 0)
(0.0163899 0.18178 0)
(0.0164439 0.140066 0)
(0.0153061 0.0991299 0)
(0.0130288 0.0602102 0)
(0.00986092 0.0226222 0)
(0.00575308 -0.0147449 0)
(0.000562245 -0.0526775 0)
(-0.0055624 -0.0912728 0)
(-0.0130292 -0.13016 0)
(-0.0219763 -0.170339 0)
(-0.0377175 -0.220721 0)
(-0.0487309 -0.304488 0)
(-0.0679051 -0.408507 0)
(-0.0144594 -0.360043 0)
(0.0103285 0.0844821 0)
(0.0234183 0.186497 0)
(0.0310821 0.233325 0)
(0.0370118 0.250163 0)
(0.0426737 0.243323 0)
(0.0476284 0.217537 0)
(0.0510654 0.180775 0)
(0.0527408 0.14037 0)
(0.0526086 0.100611 0)
(0.0508785 0.062808 0)
(0.0477682 0.0264522 0)
(0.0431605 -0.00951428 0)
(0.0368878 -0.0459838 0)
(0.0290738 -0.0831123 0)
(0.0189206 -0.120533 0)
(0.00759628 -0.158472 0)
(-0.0118176 -0.204434 0)
(-0.0242412 -0.28649 0)
(-0.0558452 -0.411014 0)
(-0.00613792 -0.401891 0)
(0.00987704 0.0672325 0)
(0.0290287 0.170688 0)
(0.0443547 0.222234 0)
(0.0568973 0.241329 0)
(0.0681912 0.236401 0)
(0.0778784 0.213039 0)
(0.0850996 0.178746 0)
(0.089554 0.140407 0)
(0.0913181 0.102249 0)
(0.090692 0.0658171 0)
(0.0880059 0.0309744 0)
(0.0829567 -0.00329705 0)
(0.0754431 -0.0375325 0)
(0.0657523 -0.0723081 0)
(0.0525026 -0.107429 0)
(0.0375711 -0.142775 0)
(0.0131306 -0.184262 0)
(7.82281e-05 -0.263252 0)
(-0.0447987 -0.406715 0)
(0.00276519 -0.43627 0)
(0.006929 0.0493964 0)
(0.0293632 0.148967 0)
(0.0511119 0.203644 0)
(0.069991 0.224562 0)
(0.0874677 0.221705 0)
(0.103163 0.201546 0)
(0.115833 0.170952 0)
(0.124798 0.136062 0)
(0.129969 0.100867 0)
(0.131589 0.0670422 0)
(0.129924 0.0348392 0)
(0.125 0.00343316 0)
(0.116369 -0.0274575 0)
(0.104638 -0.0586913 0)
(0.0875462 -0.090311 0)
(0.0683579 -0.122927 0)
(0.038295 -0.160848 0)
(0.023858 -0.237154 0)
(-0.0344411 -0.398963 0)
(0.0134744 -0.464429 0)
(0.00238676 0.0346277 0)
(0.0236396 0.123899 0)
(0.0509572 0.179951 0)
(0.0766902 0.20295 0)
(0.101357 0.202638 0)
(0.124241 0.186237 0)
(0.143695 0.16018 0)
(0.158504 0.12975 0)
(0.168249 0.0985588 0)
(0.173139 0.0682954 0)
(0.173113 0.0395569 0)
(0.168885 0.0119373 0)
(0.159049 -0.0149062 0)
(0.145316 -0.0417076 0)
(0.124013 -0.0687474 0)
(0.100474 -0.0975475 0)
(0.0646201 -0.132703 0)
(0.0470052 -0.207453 0)
(-0.022706 -0.387082 0)
(0.0285321 -0.485558 0)
(-0.00342593 0.0286161 0)
(0.010071 0.101501 0)
(0.0371103 0.148697 0)
(0.0689764 0.169462 0)
(0.101872 0.170683 0)
(0.133593 0.158391 0)
(0.161592 0.137956 0)
(0.184139 0.113553 0)
(0.200188 0.0882664 0)
(0.210112 0.0636261 0)
(0.213036 0.0403775 0)
(0.210782 0.0184025 0)
(0.200517 -0.00267347 0)
(0.185886 -0.0233081 0)
(0.161071 -0.0439725 0)
(0.134453 -0.0677336 0)
(0.0929228 -0.101685 0)
(0.0698737 -0.180008 0)
(-0.004369 -0.370051 0)
(0.0521605 -0.49164 0)
(-0.01401 0.0185198 0)
(-0.00751571 0.0881767 0)
(0.019218 0.124194 0)
(0.0564515 0.137319 0)
(0.0976062 0.13691 0)
(0.13799 0.127727 0)
(0.174244 0.11307 0)
(0.20409 0.0952912 0)
(0.225985 0.0768189 0)
(0.241079 0.0586707 0)
(0.247113 0.0417994 0)
(0.248029 0.0261067 0)
(0.23869 0.0117449 0)
(0.226873 -0.00204505 0)
(0.201875 -0.016084 0)
(0.177892 -0.0350199 0)
(0.133546 -0.0677984 0)
(0.107836 -0.145999 0)
(0.0374706 -0.326119 0)
(0.0923668 -0.455871 0)
(-0.106018 0.0824197 0)
(-0.0777587 0.0689925 0)
(-0.0485681 0.0733694 0)
(0.00377928 0.0778881 0)
(0.0572935 0.0782213 0)
(0.110025 0.0739568 0)
(0.157193 0.0666216 0)
(0.199555 0.0572171 0)
(0.231666 0.0475417 0)
(0.259818 0.0378858 0)
(0.275545 0.0292194 0)
(0.2907 0.021234 0)
(0.291053 0.0144774 0)
(0.295164 0.00809468 0)
(0.278864 0.00112724 0)
(0.271651 -0.0100103 0)
(0.232341 -0.0355657 0)
(0.21814 -0.0954182 0)
(0.150208 -0.229723 0)
(0.170672 -0.341456 0)
(0.12997 0.103745 0)
(0.158321 0.0752293 0)
(0.212167 0.0532293 0)
(0.270676 0.0416241 0)
(0.323251 0.035914 0)
(0.375692 0.0319492 0)
(0.420285 0.0289168 0)
(0.465603 0.0255811 0)
(0.498698 0.0229031 0)
(0.533947 0.0197108 0)
(0.553385 0.017548 0)
(0.579195 0.0146103 0)
(0.585333 0.0131656 0)
(0.603673 0.0103468 0)
(0.595095 0.00938454 0)
(0.603597 0.00500071 0)
(0.567791 8.99282e-05 0)
(0.547614 -0.0183155 0)
(0.435693 -0.0504144 0)
(0.336755 -0.101386 0)
)
;

boundaryField
{
    movingWall
    {
        type            fixedValue;
        value           uniform (1 0 0);
    }
    fixedWalls
    {
        type            noSlip;
    }
    frontAndBack
    {
        type            empty;
    }
}


// ************************************************************************* //
