/*--------------------------------*- C++ -*----------------------------------*\
| =========                 |                                                 |
| \\      /  F ield         | OpenFOAM: The Open Source CFD Toolbox           |
|  \\    /   O peration     | Version:  2212                                  |
|   \\  /    A nd           | Website:  www.openfoam.com                      |
|    \\/     M anipulation  |                                                 |
\*---------------------------------------------------------------------------*/
FoamFile
{
    version     2.0;
    format      ascii;
    arch        "LSB;label=32;scalar=64";
    class       volScalarField;
    location    "9.9";
    object      p;
}
// * * * * * * * * * * * * * * * * * * * * * * * * * * * * * * * * * * * * * //

dimensions      [0 2 -2 0 0 0 0];

internalField   nonuniform List<scalar> 
400
(
5.0617e-07
-0.00015048
-0.000534549
-0.00107174
-0.00173245
-0.00249391
-0.00318502
-0.00359758
-0.00356535
-0.00293409
-0.00154855
0.000619368
0.00324956
0.0055141
0.00653386
0.00592311
0.00400241
0.00215004
0.00111108
0.00104204
0.000116405
-5.80054e-05
-0.000376941
-0.000764108
-0.00124402
-0.00188813
-0.00270623
-0.00354352
-0.00407999
-0.00393841
-0.00284643
-0.00082487
0.00168937
0.00396097
0.00512484
0.00474336
0.00310336
0.00137513
0.000593542
0.000684611
0.000536513
0.000265054
-7.72288e-05
-0.000559577
-0.00134726
-0.00258062
-0.00421912
-0.00598373
-0.00740247
-0.00794377
-0.00726409
-0.00546192
-0.00289158
-0.000194568
0.0017919
0.002428
0.00170916
0.00050249
-0.00039572
-0.000392437
0.001152
0.000741325
0.000191955
-0.000774749
-0.00245108
-0.00493777
-0.00799501
-0.0111202
-0.013703
-0.0151765
-0.0152064
-0.0138395
-0.0112933
-0.0080288
-0.00475203
-0.00220953
-0.000870189
-0.000706015
-0.00128863
-0.00191797
0.00158335
0.000973766
-2.28167e-05
-0.00192403
-0.00500656
-0.00917986
-0.0139133
-0.0184791
-0.0222153
-0.0246519
-0.0255275
-0.0247218
-0.0223625
-0.0187427
-0.014304
-0.00965527
-0.00559181
-0.00294868
-0.00219308
-0.00401776
0.00129336
0.000445054
-0.00119728
-0.00430426
-0.00900475
-0.0148801
-0.0210719
-0.0267141
-0.0311898
-0.0341769
-0.0355436
-0.0351877
-0.0331952
-0.0297172
-0.0248982
-0.0189601
-0.0125047
-0.00694801
-0.00440067
-0.00652391
-4.831e-05
-0.00114751
-0.00349934
-0.00779657
-0.013932
-0.0211135
-0.0282349
-0.0344059
-0.0391265
-0.0422296
-0.0437172
-0.0436078
-0.0419702
-0.0388766
-0.034309
-0.0281557
-0.020538
-0.0127022
-0.00785445
-0.00774772
-0.00245043
-0.00374207
-0.00669837
-0.0119129
-0.019039
-0.0269805
-0.0345023
-0.0407768
-0.0454479
-0.0484738
-0.0499363
-0.0499276
-0.0485271
-0.0457855
-0.0416599
-0.0359247
-0.0283242
-0.0193701
-0.0118217
-0.00798027
-0.00553748
-0.006915
-0.0102633
-0.0160212
-0.023657
-0.0318878
-0.039449
-0.04561
-0.0501339
-0.0530536
-0.0544826
-0.0545227
-0.0532487
-0.0507222
-0.0469591
-0.0418096
-0.034866
-0.0259464
-0.0167083
-0.00999409
-0.00873348
-0.0100855
-0.0135971
-0.0195413
-0.0272849
-0.035485
-0.0429094
-0.0489063
-0.0533054
-0.0561629
-0.0575866
-0.0576578
-0.0564397
-0.054007
-0.0504476
-0.0457576
-0.0396319
-0.0315224
-0.0223201
-0.0143391
-0.0115037
-0.0127574
-0.0162186
-0.0220532
-0.0296054
-0.0375863
-0.0448234
-0.0506955
-0.0550383
-0.0578892
-0.0593313
-0.0594228
-0.0582138
-0.0557844
-0.0522829
-0.0478492
-0.0424286
-0.0353808
-0.0271966
-0.0191783
-0.0135489
-0.0146181
-0.0178551
-0.0233142
-0.0304291
-0.0380602
-0.0451145
-0.0509457
-0.0553243
-0.0582352
-0.0597226
-0.059825
-0.0585833
-0.0560784
-0.0525115
-0.0481349
-0.0432043
-0.0370544
-0.0300305
-0.022416
-0.0148369
-0.0155673
-0.018351
-0.0232089
-0.0296915
-0.0368763
-0.0437613
-0.0496361
-0.0541502
-0.0571958
-0.0587646
-0.0588717
-0.0575527
-0.0549112
-0.0511732
-0.0466527
-0.0419631
-0.0362984
-0.0302247
-0.0228948
-0.0154672
-0.0157215
-0.0177764
-0.0217451
-0.0273879
-0.0340292
-0.0407474
-0.0467367
-0.0514885
-0.0547633
-0.056477
-0.056618
-0.0551967
-0.0523486
-0.0483426
-0.043579
-0.0387287
-0.0331401
-0.0280985
-0.0202784
-0.0155738
-0.0152976
-0.0163373
-0.0190868
-0.0236516
-0.0296321
-0.0361689
-0.0423325
-0.0474237
-0.0510351
-0.0529755
-0.0531789
-0.0516866
-0.0485876
-0.0442237
-0.0390517
-0.0337805
-0.0280708
-0.0242309
-0.0143846
-0.0152763
-0.0145496
-0.0142602
-0.0154252
-0.0186838
-0.0238931
-0.0302293
-0.036612
-0.0421345
-0.0461975
-0.0484854
-0.0488625
-0.0473495
-0.0440178
-0.0392466
-0.0335175
-0.0276406
-0.0216292
-0.0180537
-0.00383316
-0.0146616
-0.0136178
-0.0117065
-0.0110807
-0.0129531
-0.0173794
-0.0235326
-0.0301684
-0.0361907
-0.0408085
-0.0435754
-0.0442584
-0.0428477
-0.039374
-0.0341837
-0.027689
-0.0206824
-0.0132769
-0.00678682
0.0160521
-0.0145828
-0.0126568
-0.00864828
-0.00623456
-0.00690996
-0.0107454
-0.016817
-0.0237386
-0.0302967
-0.0355369
-0.038901
-0.0400324
-0.0388752
-0.0354462
-0.0298948
-0.0222757
-0.0128733
-0.000689571
0.0166933
0.0570625
-0.0117943
-0.0118305
-0.00572613
-0.00177525
-0.00176522
-0.00540474
-0.0115748
-0.018814
-0.0258741
-0.0316855
-0.0356601
-0.0373596
-0.0366833
-0.0333538
-0.0272234
-0.0175417
-0.00314929
0.0204885
0.0607024
0.12982
-0.0295165
-0.0106296
-0.000609011
0.00308046
0.00244787
-0.00155718
-0.00799922
-0.0155526
-0.0229748
-0.029172
-0.0335298
-0.0355858
-0.0351992
-0.0319543
-0.0252268
-0.0128601
0.00942167
0.0511699
0.122876
0.226075
)
;

boundaryField
{
    movingWall
    {
        type            zeroGradient;
    }
    fixedWalls
    {
        type            zeroGradient;
    }
    frontAndBack
    {
        type            empty;
    }
}


// ************************************************************************* //
