/*--------------------------------*- C++ -*----------------------------------*\
| =========                 |                                                 |
| \\      /  F ield         | OpenFOAM: The Open Source CFD Toolbox           |
|  \\    /   O peration     | Version:  2212                                  |
|   \\  /    A nd           | Website:  www.openfoam.com                      |
|    \\/     M anipulation  |                                                 |
\*---------------------------------------------------------------------------*/
FoamFile
{
    version     2.0;
    format      ascii;
    arch        "LSB;label=32;scalar=64";
    class       volScalarField;
    location    "12.5";
    object      p;
}
// * * * * * * * * * * * * * * * * * * * * * * * * * * * * * * * * * * * * * //

dimensions      [0 2 -2 0 0 0 0];

internalField   nonuniform List<scalar> 
400
(
3.5833e-07
-0.000150648
-0.000534732
-0.00107194
-0.00173266
-0.00249415
-0.00318528
-0.00359785
-0.00356562
-0.00293435
-0.0015488
0.000619163
0.00324939
0.00551391
0.00653358
0.00592269
0.00400187
0.00214943
0.00111043
0.00104137
0.000116237
-5.81795e-05
-0.000377126
-0.000764302
-0.00124422
-0.00188835
-0.00270648
-0.00354381
-0.00408031
-0.00393872
-0.00284672
-0.00082512
0.00168915
0.00396072
0.00512451
0.00474289
0.00310278
0.00137453
0.000592939
0.000683983
0.000536355
0.000264885
-7.74087e-05
-0.000559769
-0.00134748
-0.00258088
-0.00421946
-0.00598416
-0.00740297
-0.00794429
-0.00726458
-0.00546236
-0.00289198
-0.000194949
0.00179147
0.00242747
0.00170853
0.000501828
-0.000396362
-0.000393071
0.00115187
0.000741184
0.000191792
-0.000774952
-0.00245136
-0.00493816
-0.00799556
-0.011121
-0.0137039
-0.0151774
-0.0152073
-0.0138403
-0.0112941
-0.0080295
-0.00475267
-0.00221017
-0.000870851
-0.000706692
-0.0012893
-0.00191863
0.00158327
0.000973666
-2.2966e-05
-0.00192427
-0.00500697
-0.0091805
-0.0139142
-0.0184803
-0.0222167
-0.0246534
-0.0255291
-0.0247233
-0.0223639
-0.0187439
-0.0143051
-0.00965616
-0.00559258
-0.00294938
-0.00219373
-0.00401846
0.00129333
0.000444976
-0.00119746
-0.00430461
-0.00900539
-0.0148811
-0.0210733
-0.0267158
-0.0311918
-0.0341791
-0.0355459
-0.0351899
-0.0331973
-0.0297191
-0.0248998
-0.0189614
-0.0125057
-0.00694881
-0.00440136
-0.00652466
-4.83477e-05
-0.00114762
-0.0034996
-0.00779711
-0.0139329
-0.0211149
-0.0282368
-0.0344083
-0.0391293
-0.0422326
-0.0437204
-0.043611
-0.0419732
-0.0388791
-0.0343112
-0.0281575
-0.0205394
-0.0127032
-0.00785522
-0.00774842
-0.00245053
-0.00374226
-0.00669877
-0.0119137
-0.0190403
-0.0269824
-0.0345047
-0.0407798
-0.0454515
-0.0484777
-0.0499404
-0.0499316
-0.0485309
-0.0457889
-0.0416627
-0.035927
-0.028326
-0.0193714
-0.0118227
-0.00798094
-0.00553772
-0.00691532
-0.0102639
-0.0160223
-0.0236586
-0.0318901
-0.0394519
-0.0456136
-0.0501382
-0.0530583
-0.0544875
-0.0545276
-0.0532533
-0.0507263
-0.0469626
-0.0418124
-0.0348682
-0.025948
-0.0167095
-0.0099949
-0.00873385
-0.010086
-0.0135979
-0.0195425
-0.0272868
-0.0354877
-0.0429128
-0.0489105
-0.0533102
-0.0561682
-0.0575922
-0.0576634
-0.0564449
-0.0540118
-0.0504517
-0.0457609
-0.0396345
-0.0315244
-0.0223216
-0.0143402
-0.0115042
-0.012758
-0.0162195
-0.0220546
-0.0296075
-0.0375891
-0.044827
-0.0506999
-0.0550434
-0.0578949
-0.0593372
-0.0594287
-0.0582195
-0.0557895
-0.0522873
-0.0478527
-0.0424315
-0.035383
-0.0271983
-0.0191797
-0.0135494
-0.0146188
-0.017856
-0.0233157
-0.0304312
-0.0380632
-0.0451182
-0.0509502
-0.0553296
-0.058241
-0.0597287
-0.0598311
-0.058589
-0.0560836
-0.052516
-0.0481384
-0.0432071
-0.0370566
-0.0300322
-0.0224175
-0.0148374
-0.0155679
-0.0183519
-0.0232104
-0.0296935
-0.0368791
-0.0437649
-0.0496405
-0.0541553
-0.0572014
-0.0587705
-0.0588776
-0.0575582
-0.0549162
-0.0511774
-0.0466561
-0.0419656
-0.0363003
-0.0302263
-0.0228961
-0.0154678
-0.0157221
-0.0177773
-0.0217463
-0.0273897
-0.0340317
-0.0407507
-0.0467407
-0.0514931
-0.0547685
-0.0564824
-0.0566234
-0.0552018
-0.0523531
-0.0483463
-0.0435819
-0.0387307
-0.0331415
-0.0280997
-0.0202793
-0.0155743
-0.0152981
-0.016338
-0.0190877
-0.0236531
-0.0296341
-0.0361716
-0.0423359
-0.0474277
-0.0510396
-0.0529803
-0.0531836
-0.0516911
-0.0485915
-0.0442268
-0.0390538
-0.0337818
-0.0280716
-0.0242315
-0.014385
-0.0152767
-0.0145501
-0.0142607
-0.0154259
-0.0186848
-0.0238946
-0.0302314
-0.0366147
-0.0421379
-0.0462013
-0.0484894
-0.0488665
-0.0473532
-0.0440209
-0.0392489
-0.0335189
-0.0276412
-0.0216293
-0.0180534
-0.00383286
-0.014662
-0.0136181
-0.0117068
-0.011081
-0.0129536
-0.0173802
-0.023534
-0.0301704
-0.0361933
-0.0408115
-0.0435787
-0.0442617
-0.0428506
-0.0393764
-0.0341852
-0.0276897
-0.0206822
-0.0132761
-0.0067857
0.016053
-0.0145832
-0.0126571
-0.0086484
-0.00623455
-0.00691001
-0.0107458
-0.0168178
-0.0237399
-0.0302986
-0.0355393
-0.0389036
-0.0400351
-0.0388776
-0.035448
-0.0298958
-0.0222758
-0.0128725
-0.000688078
0.0166951
0.057064
-0.0117945
-0.0118306
-0.00572604
-0.00177496
-0.00176494
-0.00540468
-0.0115752
-0.0188149
-0.0258755
-0.0316875
-0.0356623
-0.0373619
-0.0366853
-0.0333553
-0.0272241
-0.0175415
-0.00314817
0.0204904
0.0607044
0.129821
-0.0295168
-0.0106297
-0.000608804
0.00308087
0.0024483
-0.00155696
-0.00799941
-0.0155533
-0.0229761
-0.0291738
-0.0335319
-0.035588
-0.0352011
-0.0319557
-0.0252276
-0.0128599
0.00942269
0.0511716
0.122878
0.226076
)
;

boundaryField
{
    movingWall
    {
        type            zeroGradient;
    }
    fixedWalls
    {
        type            zeroGradient;
    }
    frontAndBack
    {
        type            empty;
    }
}


// ************************************************************************* //
