/*--------------------------------*- C++ -*----------------------------------*\
| =========                 |                                                 |
| \\      /  F ield         | OpenFOAM: The Open Source CFD Toolbox           |
|  \\    /   O peration     | Version:  2212                                  |
|   \\  /    A nd           | Website:  www.openfoam.com                      |
|    \\/     M anipulation  |                                                 |
\*---------------------------------------------------------------------------*/
FoamFile
{
    version     2.0;
    format      ascii;
    arch        "LSB;label=32;scalar=64";
    class       volVectorField;
    location    "12.5";
    object      U;
}
// * * * * * * * * * * * * * * * * * * * * * * * * * * * * * * * * * * * * * //

dimensions      [0 1 -1 0 0 0 0];

internalField   nonuniform List<vector> 
400
(
(0.00168189 -0.0016837 0)
(0.0048389 -0.00189223 0)
(0.00659136 -0.00120073 0)
(0.00567504 -0.000575138 0)
(0.00157241 0.000183967 0)
(-0.00682907 0.00173938 0)
(-0.0206084 0.00478646 0)
(-0.0395419 0.0087363 0)
(-0.0608126 0.0112929 0)
(-0.0791394 0.0105127 0)
(-0.0898146 0.0067745 0)
(-0.0904648 0.00166881 0)
(-0.0802269 -0.00361676 0)
(-0.059994 -0.00827526 0)
(-0.0335203 -0.0108474 0)
(-0.00529157 -0.00979539 0)
(0.0167251 -0.0047729 0)
(0.0244716 0.00277712 0)
(0.0161792 0.00647249 0)
(0.00431661 0.00471725 0)
(0.00172061 -0.00506522 0)
(0.00316296 -0.00403255 0)
(-0.000416726 0.000587722 0)
(-0.0113296 0.00644177 0)
(-0.0314263 0.0140504 0)
(-0.0611511 0.0237747 0)
(-0.0968491 0.0330629 0)
(-0.131463 0.037094 0)
(-0.158977 0.0335184 0)
(-0.176109 0.0234017 0)
(-0.181456 0.00910904 0)
(-0.175084 -0.00699082 0)
(-0.157565 -0.0231754 0)
(-0.129653 -0.0369156 0)
(-0.0936156 -0.0445671 0)
(-0.0521942 -0.0418397 0)
(-0.0113992 -0.0263342 0)
(0.0168908 -0.00127837 0)
(0.0178728 0.0162247 0)
(0.00554234 0.0148205 0)
(-0.000239484 -0.00578076 0)
(-0.00538098 0.000801464 0)
(-0.0196095 0.0142996 0)
(-0.0445051 0.0312371 0)
(-0.0803439 0.0494477 0)
(-0.12221 0.0643236 0)
(-0.162357 0.0705497 0)
(-0.195281 0.0660314 0)
(-0.218875 0.0521927 0)
(-0.232543 0.0315344 0)
(-0.236299 0.00641569 0)
(-0.230813 -0.0211153 0)
(-0.216398 -0.048876 0)
(-0.192551 -0.0732305 0)
(-0.159012 -0.0890302 0)
(-0.115745 -0.0892324 0)
(-0.0645643 -0.0670301 0)
(-0.0138208 -0.0226637 0)
(0.00948191 0.0179199 0)
(0.00415547 0.023581 0)
(-0.003472 0.000452808 0)
(-0.0175154 0.0172406 0)
(-0.0435181 0.0415026 0)
(-0.0796867 0.0681986 0)
(-0.122967 0.0911663 0)
(-0.165863 0.103855 0)
(-0.201937 0.102909 0)
(-0.229262 0.0896759 0)
(-0.248103 0.0673288 0)
(-0.259058 0.0385804 0)
(-0.262966 0.00531633 0)
(-0.260633 -0.0311201 0)
(-0.251999 -0.0684599 0)
(-0.236019 -0.10375 0)
(-0.210705 -0.131497 0)
(-0.173355 -0.142897 0)
(-0.121408 -0.125769 0)
(-0.0568461 -0.0708537 0)
(-0.000986639 0.00356784 0)
(0.00474231 0.0282418 0)
(-0.00666313 0.0147829 0)
(-0.0287318 0.0441131 0)
(-0.0632949 0.0771003 0)
(-0.104471 0.108929 0)
(-0.147294 0.13122 0)
(-0.184598 0.138208 0)
(-0.212939 0.129514 0)
(-0.232725 0.108754 0)
(-0.245244 0.0798022 0)
(-0.252221 0.0454492 0)
(-0.25534 0.00723924 0)
(-0.255521 -0.0340015 0)
(-0.252541 -0.0770896 0)
(-0.245858 -0.120695 0)
(-0.23266 -0.160833 0)
(-0.208335 -0.189043 0)
(-0.16683 -0.189991 0)
(-0.103455 -0.142885 0)
(-0.0221828 -0.0388531 0)
(0.0073823 0.0271028 0)
(-0.0085117 0.0348754 0)
(-0.035181 0.0766452 0)
(-0.0731009 0.114965 0)
(-0.113277 0.147718 0)
(-0.150545 0.166053 0)
(-0.179412 0.165989 0)
(-0.19894 0.149777 0)
(-0.210688 0.122516 0)
(-0.21664 0.0885523 0)
(-0.219272 0.0508733 0)
(-0.220542 0.0109545 0)
(-0.221442 -0.0307619 0)
(-0.222173 -0.074728 0)
(-0.222845 -0.121301 0)
(-0.221271 -0.169249 0)
(-0.212366 -0.213081 0)
(-0.188044 -0.238609 0)
(-0.1397 -0.218557 0)
(-0.0628542 -0.118949 0)
(0.00584978 0.0142045 0)
(-0.00829412 0.0570106 0)
(-0.0353472 0.110022 0)
(-0.0718476 0.150514 0)
(-0.107094 0.18121 0)
(-0.136733 0.193906 0)
(-0.157143 0.18651 0)
(-0.169057 0.163345 0)
(-0.174598 0.130559 0)
(-0.176173 0.0929102 0)
(-0.176274 0.0534136 0)
(-0.176388 0.0133138 0)
(-0.177189 -0.0273151 0)
(-0.17922 -0.0695859 0)
(-0.183027 -0.114741 0)
(-0.187972 -0.163876 0)
(-0.19044 -0.215844 0)
(-0.18255 -0.261695 0)
(-0.154298 -0.275211 0)
(-0.0994132 -0.205931 0)
(-0.00890857 -0.0146247 0)
(-0.00613698 0.0776101 0)
(-0.0297988 0.140579 0)
(-0.0614397 0.181256 0)
(-0.0899157 0.208376 0)
(-0.11193 0.214967 0)
(-0.12547 0.20064 0)
(-0.132163 0.171406 0)
(-0.134318 0.134241 0)
(-0.134382 0.094123 0)
(-0.134285 0.0537555 0)
(-0.134692 0.0138631 0)
(-0.135785 -0.025894 0)
(-0.138017 -0.0664941 0)
(-0.142079 -0.109115 0)
(-0.148589 -0.155705 0)
(-0.156251 -0.20862 0)
(-0.159104 -0.265944 0)
(-0.146772 -0.308178 0)
(-0.112271 -0.277246 0)
(-0.0309704 -0.0753459 0)
(-0.00273101 0.0936331 0)
(-0.0204244 0.165675 0)
(-0.0451652 0.205653 0)
(-0.0663655 0.228649 0)
(-0.0816382 0.229612 0)
(-0.090132 0.209625 0)
(-0.0937671 0.175871 0)
(-0.0946819 0.135832 0)
(-0.0949619 0.0944833 0)
(-0.0957592 0.0540376 0)
(-0.0971101 0.0145943 0)
(-0.0989203 -0.0245903 0)
(-0.101356 -0.0642457 0)
(-0.104922 -0.105021 0)
(-0.110765 -0.148505 0)
(-0.119624 -0.198625 0)
(-0.128374 -0.259852 0)
(-0.126544 -0.323512 0)
(-0.107495 -0.334815 0)
(-0.0373554 -0.163466 0)
(0.0012193 0.102782 0)
(-0.00894667 0.183521 0)
(-0.0256534 0.223211 0)
(-0.0396561 0.242837 0)
(-0.0491385 0.239603 0)
(-0.0540136 0.215629 0)
(-0.0559853 0.178872 0)
(-0.0567002 0.137173 0)
(-0.0576628 0.0954159 0)
(-0.0594062 0.0552782 0)
(-0.0616999 0.016311 0)
(-0.0644005 -0.0224967 0)
(-0.0674992 -0.0617504 0)
(-0.0711738 -0.101649 0)
(-0.0763566 -0.142858 0)
(-0.0846171 -0.189002 0)
(-0.0960827 -0.248421 0)
(-0.100664 -0.324381 0)
(-0.095183 -0.372283 0)
(-0.0309265 -0.242622 0)
(0.00511926 0.103949 0)
(0.00295741 0.193124 0)
(-0.00539199 0.233709 0)
(-0.0125107 0.250872 0)
(-0.0169029 0.244788 0)
(-0.018791 0.218571 0)
(-0.0194803 0.180508 0)
(-0.0200096 0.138431 0)
(-0.0213087 0.0969716 0)
(-0.0235451 0.0574294 0)
(-0.0264343 0.0190834 0)
(-0.029918 -0.0191712 0)
(-0.0340127 -0.0579886 0)
(-0.0386565 -0.0974191 0)
(-0.0443948 -0.137379 0)
(-0.0524541 -0.180251 0)
(-0.0657698 -0.235723 0)
(-0.0742269 -0.318161 0)
(-0.0812036 -0.396789 0)
(-0.0229436 -0.307184 0)
(0.00845931 0.0974746 0)
(0.0142233 0.194118 0)
(0.0141063 0.237232 0)
(0.0137118 0.253653 0)
(0.0143347 0.246575 0)
(0.0155318 0.219867 0)
(0.0163916 0.181817 0)
(0.0164454 0.140102 0)
(0.0153077 0.0991596 0)
(0.0130307 0.0602297 0)
(0.00986294 0.0226279 0)
(0.00575448 -0.0147548 0)
(0.000562285 -0.0527029 0)
(-0.00556389 -0.0913119 0)
(-0.0130324 -0.13021 0)
(-0.0219796 -0.170393 0)
(-0.0377201 -0.220769 0)
(-0.0487297 -0.304522 0)
(-0.0679046 -0.408533 0)
(-0.0144592 -0.360066 0)
(0.0103313 0.0844936 0)
(0.0234234 0.186521 0)
(0.0310885 0.233355 0)
(0.0370194 0.250198 0)
(0.0426824 0.24336 0)
(0.0476384 0.217575 0)
(0.0510768 0.180812 0)
(0.0527537 0.140404 0)
(0.0526232 0.10064 0)
(0.0508948 0.0628273 0)
(0.0477856 0.0264586 0)
(0.0431775 -0.00952252 0)
(0.036903 -0.0460068 0)
(0.0290865 -0.0831485 0)
(0.0189296 -0.120579 0)
(0.0076024 -0.158524 0)
(-0.0118138 -0.204482 0)
(-0.0242357 -0.286524 0)
(-0.0558424 -0.411039 0)
(-0.00613702 -0.401913 0)
(0.00988011 0.0672395 0)
(0.0290359 0.17071 0)
(0.0443647 0.222263 0)
(0.0569098 0.241363 0)
(0.0682062 0.236437 0)
(0.077896 0.213075 0)
(0.0851199 0.178781 0)
(0.0895773 0.140439 0)
(0.0913444 0.102275 0)
(0.090721 0.0658352 0)
(0.0880365 0.0309812 0)
(0.0829872 -0.00330366 0)
(0.0754716 -0.0375526 0)
(0.0657777 -0.0723402 0)
(0.052523 -0.107471 0)
(0.0375866 -0.142823 0)
(0.013141 -0.184309 0)
(8.73164e-05 -0.263285 0)
(-0.044794 -0.406737 0)
(0.00276674 -0.436288 0)
(0.00693127 0.0493984 0)
(0.0293712 0.148983 0)
(0.0511244 0.203669 0)
(0.0700073 0.224593 0)
(0.0874876 0.221737 0)
(0.103186 0.201579 0)
(0.115861 0.170983 0)
(0.124829 0.136091 0)
(0.130004 0.10089 0)
(0.131628 0.0670578 0)
(0.129965 0.034845 0)
(0.125041 0.0034276 0)
(0.116409 -0.0274745 0)
(0.104674 -0.0587187 0)
(0.0875761 -0.0903471 0)
(0.0683815 -0.122969 0)
(0.0383114 -0.160889 0)
(0.023869 -0.237183 0)
(-0.0344352 -0.398982 0)
(0.0134768 -0.464443 0)
(0.00238764 0.0346256 0)
(0.0236465 0.123909 0)
(0.0509702 0.179971 0)
(0.0767084 0.202975 0)
(0.10138 0.202666 0)
(0.124269 0.186265 0)
(0.143728 0.160207 0)
(0.158542 0.129774 0)
(0.168291 0.0985785 0)
(0.173185 0.0683086 0)
(0.173161 0.039562 0)
(0.168934 0.0119333 0)
(0.159096 -0.0149194 0)
(0.145359 -0.0417295 0)
(0.12405 -0.0687766 0)
(0.100504 -0.0975815 0)
(0.0646413 -0.132737 0)
(0.047017 -0.207476 0)
(-0.0226991 -0.387095 0)
(0.0285355 -0.485566 0)
(-0.00342647 0.0286109 0)
(0.0100758 0.101505 0)
(0.0371218 0.148711 0)
(0.0689938 0.169482 0)
(0.101895 0.170705 0)
(0.133622 0.158414 0)
(0.161627 0.137978 0)
(0.184179 0.113572 0)
(0.200233 0.0882815 0)
(0.210162 0.0636359 0)
(0.213088 0.0403808 0)
(0.210835 0.018399 0)
(0.200569 -0.0026844 0)
(0.185933 -0.0233255 0)
(0.161112 -0.0439949 0)
(0.134487 -0.0677589 0)
(0.0929459 -0.101711 0)
(0.0698851 -0.180027 0)
(-0.00436264 -0.370059 0)
(0.0521637 -0.491645 0)
(-0.0140134 0.0185148 0)
(-0.00751625 0.0881755 0)
(0.0192245 0.1242 0)
(0.0564649 0.13733 0)
(0.0976268 0.136925 0)
(0.138018 0.127743 0)
(0.174279 0.113085 0)
(0.204131 0.095305 0)
(0.226032 0.0768298 0)
(0.24113 0.0586778 0)
(0.247167 0.0418019 0)
(0.248084 0.0261045 0)
(0.238742 0.0117375 0)
(0.226922 -0.00205627 0)
(0.201917 -0.0160986 0)
(0.177925 -0.0350359 0)
(0.133569 -0.0678141 0)
(0.107847 -0.146008 0)
(0.0374757 -0.32612 0)
(0.0923689 -0.455871 0)
(-0.106021 0.0824162 0)
(-0.077761 0.0689893 0)
(-0.0485677 0.0733715 0)
(0.00378472 0.0778935 0)
(0.0573054 0.0782288 0)
(0.110043 0.0739652 0)
(0.157218 0.0666298 0)
(0.199586 0.0572244 0)
(0.231702 0.0475471 0)
(0.259858 0.0378891 0)
(0.275587 0.0292201 0)
(0.290742 0.0212323 0)
(0.291093 0.0144732 0)
(0.295201 0.00808879 0)
(0.278893 0.00111971 0)
(0.271673 -0.0100177 0)
(0.232357 -0.035572 0)
(0.218147 -0.0954208 0)
(0.150209 -0.229723 0)
(0.170672 -0.341455 0)
(0.129968 0.103744 0)
(0.158319 0.0752268 0)
(0.212163 0.0532264 0)
(0.270671 0.0416218 0)
(0.323248 0.0359125 0)
(0.375692 0.0319484 0)
(0.42029 0.0289164 0)
(0.465612 0.025581 0)
(0.49871 0.0229029 0)
(0.533962 0.0197104 0)
(0.553401 0.0175473 0)
(0.579211 0.0146093 0)
(0.585348 0.0131642 0)
(0.603686 0.0103451 0)
(0.595104 0.00938263 0)
(0.603603 0.00499901 0)
(0.567792 8.85984e-05 0)
(0.547612 -0.0183163 0)
(0.435689 -0.0504144 0)
(0.336753 -0.101385 0)
)
;

boundaryField
{
    movingWall
    {
        type            fixedValue;
        value           uniform (1 0 0);
    }
    fixedWalls
    {
        type            noSlip;
    }
    frontAndBack
    {
        type            empty;
    }
}


// ************************************************************************* //
