/*--------------------------------*- C++ -*----------------------------------*\
| =========                 |                                                 |
| \\      /  F ield         | OpenFOAM: The Open Source CFD Toolbox           |
|  \\    /   O peration     | Version:  2212                                  |
|   \\  /    A nd           | Website:  www.openfoam.com                      |
|    \\/     M anipulation  |                                                 |
\*---------------------------------------------------------------------------*/
FoamFile
{
    version     2.0;
    format      ascii;
    arch        "LSB;label=32;scalar=64";
    class       volScalarField;
    location    "7";
    object      p;
}
// * * * * * * * * * * * * * * * * * * * * * * * * * * * * * * * * * * * * * //

dimensions      [0 2 -2 0 0 0 0];

internalField   nonuniform List<scalar> 
400
(
7.72373e-07
-0.000150145
-0.000534026
-0.00107098
-0.0017314
-0.0024925
-0.0031833
-0.00359569
-0.00356341
-0.00293228
-0.00154714
0.00062016
0.00324996
0.00551481
0.00653587
0.00592716
0.00400822
0.00215676
0.00111788
0.00104864
0.000116726
-5.76174e-05
-0.000376381
-0.000763397
-0.00124315
-0.00188697
-0.00270461
-0.00354139
-0.00407748
-0.00393588
-0.0028443
-0.000823374
0.00169043
0.0039623
0.00512741
0.00474782
0.00310974
0.00138211
0.000600559
0.000691304
0.00053661
0.000265336
-7.67576e-05
-0.000558911
-0.00134622
-0.00257885
-0.00421628
-0.00597964
-0.00739738
-0.00793831
-0.00725902
-0.00545753
-0.00288789
-0.000191103
0.00179594
0.00243331
0.00171588
0.000509834
-0.000388303
-0.000385397
0.00115162
0.000741162
0.000192156
-0.000773962
-0.00244918
-0.0049341
-0.00798907
-0.0111119
-0.0136927
-0.0151652
-0.0151951
-0.0138289
-0.011284
-0.0080207
-0.00474468
-0.00220238
-0.00086291
-0.000698601
-0.00128106
-0.00191059
0.00158211
0.00097295
-2.28368e-05
-0.00192257
-0.00500266
-0.00917262
-0.0139022
-0.0184642
-0.0221972
-0.0246318
-0.0255068
-0.024702
-0.0223446
-0.0187273
-0.0142911
-0.00964452
-0.00558277
-0.00294084
-0.0021858
-0.00400988
0.00129154
0.000443885
-0.00119698
-0.00430121
-0.00899758
-0.0148677
-0.021054
-0.0266908
-0.0311621
-0.0341462
-0.0355117
-0.0351567
-0.0331669
-0.0296926
-0.0248777
-0.0189438
-0.0124922
-0.00693861
-0.0043928
-0.00651517
-5.00238e-05
-0.0011483
-0.00349784
-0.00779092
-0.0139205
-0.021095
-0.0282092
-0.0343735
-0.0390883
-0.0421874
-0.0436733
-0.0435648
-0.0419303
-0.0388414
-0.0342796
-0.0281323
-0.0205204
-0.0126897
-0.00784528
-0.00773977
-0.00245109
-0.00374156
-0.00669478
-0.0119039
-0.0190226
-0.0269557
-0.0344688
-0.040735
-0.0453991
-0.0484198
-0.0498799
-0.0498718
-0.0484748
-0.0457391
-0.0416208
-0.0358934
-0.0283003
-0.0193532
-0.0118106
-0.00797276
-0.00553631
-0.00691247
-0.0102571
-0.0160086
-0.0236357
-0.0318568
-0.0394081
-0.0455595
-0.0500751
-0.0529885
-0.0544142
-0.0544547
-0.0531846
-0.0506649
-0.0469106
-0.0417705
-0.0348358
-0.0259243
-0.0166936
-0.0099845
-0.00873021
-0.0100808
-0.0135883
-0.0195253
-0.0272595
-0.035449
-0.0428624
-0.0488488
-0.0532386
-0.0560889
-0.0575088
-0.0575801
-0.0563661
-0.053941
-0.0503914
-0.0457121
-0.0395964
-0.0314958
-0.0223011
-0.0143252
-0.0114987
-0.0127509
-0.0162077
-0.0220349
-0.0295772
-0.037547
-0.0447726
-0.0506335
-0.0549663
-0.0578096
-0.0592475
-0.0593391
-0.0581344
-0.0557129
-0.052222
-0.0477998
-0.0423902
-0.0353515
-0.0271745
-0.0191607
-0.0135428
-0.0146105
-0.0178432
-0.023295
-0.0304001
-0.0380201
-0.0450626
-0.0508825
-0.055251
-0.0581541
-0.0596373
-0.0597397
-0.0585023
-0.0560057
-0.0524499
-0.0480852
-0.043166
-0.0370253
-0.030008
-0.022397
-0.0148305
-0.0155596
-0.0183393
-0.0231905
-0.0296638
-0.0368378
-0.0437116
-0.0495752
-0.0540793
-0.0571173
-0.0586819
-0.0587891
-0.0574746
-0.0548417
-0.0511148
-0.0466067
-0.0419286
-0.0362729
-0.0302049
-0.0228777
-0.015461
-0.0157145
-0.0177662
-0.0217291
-0.0273637
-0.0339951
-0.0407027
-0.0466814
-0.0514236
-0.0546911
-0.0564008
-0.056542
-0.0551253
-0.0522858
-0.0482911
-0.0435401
-0.0387015
-0.0331215
-0.0280838
-0.0202666
-0.0155681
-0.0152918
-0.0163295
-0.0190746
-0.0236327
-0.0296046
-0.0361317
-0.0422853
-0.0473674
-0.0509718
-0.0529086
-0.0531123
-0.0516247
-0.0485344
-0.0441819
-0.0390225
-0.033763
-0.0280618
-0.0242242
-0.0143811
-0.0152713
-0.0145451
-0.0142551
-0.0154177
-0.0186715
-0.0238738
-0.0302012
-0.0365747
-0.0420886
-0.0461448
-0.0484292
-0.0488067
-0.0472984
-0.0439754
-0.0392158
-0.0334994
-0.0276342
-0.0216308
-0.018059
-0.00383965
-0.0146576
-0.0136146
-0.0117042
-0.0110782
-0.0129478
-0.0173686
-0.0235142
-0.0301413
-0.0361553
-0.0407666
-0.0435299
-0.0442131
-0.0428068
-0.0393418
-0.0341631
-0.0276814
-0.0206868
-0.0132901
-0.00680496
0.0160361
-0.0145805
-0.0126551
-0.00864871
-0.00623684
-0.00691127
-0.0107426
-0.0168074
-0.0237208
-0.0302709
-0.0355045
-0.0388649
-0.0399964
-0.0388434
-0.0354222
-0.0298821
-0.0222762
-0.0128869
-0.000713172
0.0166652
0.0570393
-0.0117936
-0.0118305
-0.00572958
-0.00178163
-0.00177153
-0.0054077
-0.0115715
-0.0188028
-0.0258549
-0.0316597
-0.0356302
-0.0373291
-0.0366561
-0.0333341
-0.027215
-0.0175466
-0.00316772
0.0204598
0.0606708
0.129794
-0.0295151
-0.0106307
-0.000614267
0.0030722
0.00243945
-0.00156247
-0.0079985
-0.0155441
-0.0229583
-0.0291487
-0.0335021
-0.0355572
-0.0351736
-0.0319356
-0.0252183
-0.0128639
0.00940476
0.0511436
0.122848
0.226052
)
;

boundaryField
{
    movingWall
    {
        type            zeroGradient;
    }
    fixedWalls
    {
        type            zeroGradient;
    }
    frontAndBack
    {
        type            empty;
    }
}


// ************************************************************************* //
