/*--------------------------------*- C++ -*----------------------------------*\
| =========                 |                                                 |
| \\      /  F ield         | OpenFOAM: The Open Source CFD Toolbox           |
|  \\    /   O peration     | Version:  2212                                  |
|   \\  /    A nd           | Website:  www.openfoam.com                      |
|    \\/     M anipulation  |                                                 |
\*---------------------------------------------------------------------------*/
FoamFile
{
    version     2.0;
    format      ascii;
    arch        "LSB;label=32;scalar=64";
    class       surfaceScalarField;
    location    "7";
    object      phi;
}
// * * * * * * * * * * * * * * * * * * * * * * * * * * * * * * * * * * * * * //

dimensions      [0 3 -1 0 0 0 0];

oriented        oriented;

internalField   nonuniform List<scalar> 
760
(
1.55953e-07
-1.56018e-07
2.93363e-07
-1.3741e-07
3.09664e-07
-1.63021e-08
1.8336e-07
1.26305e-07
-1.2055e-07
3.0391e-07
-6.65965e-07
5.45416e-07
-1.48495e-06
8.18987e-07
-2.49013e-06
1.00518e-06
-3.4793e-06
9.89173e-07
-4.21921e-06
7.3991e-07
-4.54298e-06
3.23769e-07
-4.35307e-06
-1.89913e-07
-3.59374e-06
-7.59331e-07
-2.37955e-06
-1.21418e-06
-9.41052e-07
-1.4385e-06
3.46503e-07
-1.28755e-06
1.08891e-06
-7.42405e-07
1.03251e-06
5.63978e-08
4.60806e-07
5.71706e-07
4.60807e-07
1.24835e-07
-2.80854e-07
7.4223e-08
-8.67983e-08
-2.97389e-07
3.5531e-07
-1.07902e-06
9.07936e-07
-2.31555e-06
1.54044e-06
-3.92632e-06
2.15619e-06
-5.66055e-06
2.55321e-06
-7.20479e-06
2.54942e-06
-8.33447e-06
2.11885e-06
-8.93984e-06
1.34528e-06
-8.97401e-06
3.57936e-07
-8.41444e-06
-7.49474e-07
-7.29248e-06
-1.88129e-06
-5.64159e-06
-2.86508e-06
-3.60604e-06
-3.47405e-06
-1.49093e-06
-3.40266e-06
1.77787e-07
-2.41112e-06
8.58308e-07
-6.24124e-07
5.25451e-07
9.04563e-07
9.86258e-07
-1.27769e-07
-1.53085e-07
-6.34097e-07
4.19531e-07
-1.6248e-06
1.34601e-06
-3.14072e-06
2.42385e-06
-5.05592e-06
3.45564e-06
-7.07092e-06
4.17119e-06
-8.87032e-06
4.35261e-06
-1.02741e-05
3.95319e-06
-1.12306e-05
3.07532e-06
-1.1732e-05
1.84673e-06
-1.17263e-05
3.52188e-07
-1.12677e-05
-1.20805e-06
-1.03355e-05
-2.81344e-06
-8.87562e-06
-4.325e-06
-6.86819e-06
-5.48147e-06
-4.40267e-06
-5.86819e-06
-1.87884e-06
-4.93495e-06
-8.67551e-08
-2.4162e-06
2.94555e-07
5.23253e-07
1.28081e-06
-5.00478e-07
3.47393e-07
-1.55966e-06
1.47871e-06
-3.11853e-06
2.90489e-06
-5.07953e-06
4.38485e-06
-7.18246e-06
5.55856e-06
-9.1196e-06
6.10834e-06
-1.06888e-05
5.92178e-06
-1.18475e-05
5.11187e-06
-1.26237e-05
3.85158e-06
-1.30522e-05
2.2752e-06
-1.31174e-05
4.17372e-07
-1.28782e-05
-1.44726e-06
-1.22959e-05
-3.39574e-06
-1.12687e-05
-5.35219e-06
-9.66584e-06
-7.0843e-06
-7.3627e-06
-8.17133e-06
-4.39786e-06
-7.89979e-06
-1.37806e-06
-5.436e-06
1.2059e-07
-9.75395e-07
1.4014e-06
-8.61642e-07
1.20903e-06
-2.3608e-06
2.97786e-06
-4.23101e-06
4.7751e-06
-6.27738e-06
6.43122e-06
-8.21886e-06
7.50004e-06
-9.83281e-06
7.72229e-06
-1.10426e-05
7.13153e-06
-1.18746e-05
5.94393e-06
-1.23908e-05
4.36776e-06
-1.26638e-05
2.54818e-06
-1.27843e-05
5.3794e-07
-1.2739e-05
-1.4926e-06
-1.25189e-05
-3.61585e-06
-1.2045e-05
-5.82604e-06
-1.11312e-05
-7.99816e-06
-9.48936e-06
-9.81314e-06
-6.8202e-06
-1.05689e-05
-3.22226e-06
-9.03395e-06
-2.61285e-07
-3.93637e-06
1.14012e-06
-1.08655e-06
2.29558e-06
-2.78326e-06
4.67458e-06
-4.67611e-06
6.66795e-06
-6.53322e-06
8.28834e-06
-8.13037e-06
9.09718e-06
-9.33653e-06
8.92846e-06
-1.01477e-05
7.94267e-06
-1.06289e-05
6.42514e-06
-1.08704e-05
4.60929e-06
-1.0972e-05
2.64978e-06
-1.10551e-05
6.21007e-07
-1.11059e-05
-1.44177e-06
-1.11407e-05
-3.58111e-06
-1.11304e-05
-5.83635e-06
-1.09216e-05
-8.20696e-06
-1.01873e-05
-1.05475e-05
-8.43314e-06
-1.23231e-05
-5.24329e-06
-1.22238e-05
-1.15843e-06
-8.02123e-06
-1.83158e-08
-1.11051e-06
3.4061e-06
-2.75772e-06
6.32179e-06
-4.45479e-06
8.36501e-06
-5.98996e-06
9.82351e-06
-7.20319e-06
1.03104e-05
-8.03212e-06
9.75739e-06
-8.51445e-06
8.42499e-06
-8.73715e-06
6.64785e-06
-8.80374e-06
4.67589e-06
-8.81107e-06
2.65711e-06
-8.84139e-06
6.51324e-07
-8.91297e-06
-1.37018e-06
-9.04575e-06
-3.44833e-06
-9.25131e-06
-5.63079e-06
-9.47346e-06
-7.98481e-06
-9.48121e-06
-1.05397e-05
-8.75576e-06
-1.30485e-05
-6.53889e-06
-1.44407e-05
-2.42405e-06
-1.21361e-05
-2.44236e-06
-9.35901e-07
4.342e-06
-2.34738e-06
7.73327e-06
-3.73451e-06
9.75213e-06
-4.91378e-06
1.10028e-05
-5.78426e-06
1.11809e-05
-6.32909e-06
1.03022e-05
-6.60541e-06
8.70132e-06
-6.70422e-06
6.74666e-06
-6.72146e-06
4.69313e-06
-6.72997e-06
2.66561e-06
-6.76526e-06
6.8661e-07
-6.84418e-06
-1.29125e-06
-6.98771e-06
-3.3048e-06
-7.22644e-06
-5.39206e-06
-7.57783e-06
-7.63342e-06
-7.95158e-06
-1.0166e-05
-7.93836e-06
-1.30617e-05
-6.72025e-06
-1.56588e-05
-3.58832e-06
-1.5268e-05
-6.03068e-06
-6.25474e-07
4.96747e-06
-1.68842e-06
8.79622e-06
-2.72199e-06
1.07857e-05
-3.56155e-06
1.18423e-05
-4.15156e-06
1.17709e-05
-4.50218e-06
1.06528e-05
-4.67228e-06
8.87142e-06
-4.74022e-06
6.8146e-06
-4.77821e-06
4.73111e-06
-4.82957e-06
2.71698e-06
-4.90423e-06
7.61271e-07
-5.00843e-06
-1.18706e-06
-5.15194e-06
-3.16128e-06
-5.36334e-06
-5.18066e-06
-5.69776e-06
-7.299e-06
-6.16917e-06
-9.69455e-06
-6.56045e-06
-1.26705e-05
-6.13102e-06
-1.60882e-05
-3.92577e-06
-1.74732e-05
-9.95646e-06
-2.32944e-07
5.20042e-06
-8.9418e-07
9.45745e-06
-1.56626e-06
1.14578e-05
-2.09634e-06
1.23724e-05
-2.45674e-06
1.21313e-05
-2.67173e-06
1.08678e-05
-2.7895e-06
8.98919e-06
-2.86328e-06
6.88838e-06
-2.9376e-06
4.80543e-06
-3.03434e-06
2.81373e-06
-3.15624e-06
8.83172e-07
-3.30283e-06
-1.04048e-06
-3.47416e-06
-2.98995e-06
-3.68235e-06
-4.97247e-06
-3.97784e-06
-7.00351e-06
-4.44301e-06
-9.22938e-06
-5.02613e-06
-1.20873e-05
-5.1261e-06
-1.59882e-05
-3.55993e-06
-1.90394e-05
-1.35164e-05
1.63742e-07
5.03667e-06
-7.02258e-08
9.69142e-06
-4.03441e-07
1.1791e-05
-6.54725e-07
1.26237e-05
-8.09985e-07
1.22866e-05
-9.00348e-07
1.09582e-05
-9.6519e-07
9.05403e-06
-1.03639e-06
6.95957e-06
-1.13049e-06
4.89954e-06
-1.25527e-06
2.93851e-06
-1.41329e-06
1.04119e-06
-1.60667e-06
-8.47097e-07
-1.83388e-06
-2.76274e-06
-2.09261e-06
-4.71373e-06
-2.41016e-06
-6.68596e-06
-2.87807e-06
-8.76146e-06
-3.56161e-06
-1.14038e-05
-4.02654e-06
-1.55233e-05
-3.02648e-06
-2.00395e-05
-1.65429e-05
5.02127e-07
4.53455e-06
7.00291e-07
9.49326e-06
7.4367e-07
1.17476e-05
7.79424e-07
1.25879e-05
8.24415e-07
1.22416e-05
8.53317e-07
1.09293e-05
8.4646e-07
9.06089e-06
7.95646e-07
7.01039e-06
7.01742e-07
4.99344e-06
5.66472e-07
3.07378e-06
3.84656e-07
1.223e-06
1.50103e-07
-6.12543e-07
-1.38775e-07
-2.47386e-06
-4.88626e-07
-4.36388e-06
-9.03131e-07
-6.27145e-06
-1.42589e-06
-8.2387e-06
-2.20437e-06
-1.06253e-05
-2.95412e-06
-1.47736e-05
-2.46103e-06
-2.05326e-05
-1.90039e-05
7.59101e-07
3.77544e-06
1.35848e-06
8.89388e-06
1.75267e-06
1.13534e-05
2.08348e-06
1.22571e-05
2.35779e-06
1.19673e-05
2.54545e-06
1.07416e-05
2.63835e-06
8.968e-06
2.64718e-06
7.00155e-06
2.58598e-06
5.05465e-06
2.46119e-06
3.19858e-06
2.26524e-06
1.41895e-06
1.98406e-06
-3.31362e-07
1.61824e-06
-2.10805e-06
1.16286e-06
-3.9085e-06
6.13603e-07
-5.72219e-06
-8.0775e-08
-7.54432e-06
-9.54544e-07
-9.75154e-06
-1.91768e-06
-1.38104e-05
-1.92454e-06
-2.05257e-05
-2.09284e-05
8.74657e-07
2.90079e-06
1.8174e-06
7.95113e-06
2.56189e-06
1.06089e-05
3.20545e-06
1.16136e-05
3.75556e-06
1.14172e-05
4.16896e-06
1.03282e-05
4.42983e-06
8.70713e-06
4.55211e-06
6.87927e-06
4.55869e-06
5.04807e-06
4.46464e-06
3.29262e-06
4.26784e-06
1.61576e-06
3.93572e-06
7.58453e-10
3.48893e-06
-1.66125e-06
2.90185e-06
-3.32142e-06
2.17568e-06
-4.99603e-06
1.32943e-06
-6.69807e-06
2.72628e-07
-8.69474e-06
-9.54523e-07
-1.25833e-05
-1.42553e-06
-2.00547e-05
-2.2354e-05
8.10537e-07
2.09025e-06
1.96308e-06
6.79859e-06
3.00989e-06
9.56213e-06
3.98718e-06
1.06363e-05
4.86802e-06
1.05363e-05
5.58639e-06
9.60985e-06
6.10317e-06
8.19036e-06
6.4213e-06
6.56114e-06
6.56157e-06
4.9078e-06
6.5419e-06
3.31229e-06
6.36052e-06
1.79714e-06
6.01477e-06
3.46506e-07
5.4716e-06
-1.11808e-06
4.73846e-06
-2.58828e-06
3.80748e-06
-4.06505e-06
2.70764e-06
-5.59823e-06
1.39929e-06
-7.38639e-06
-1.50169e-07
-1.10338e-05
-9.09961e-07
-1.92949e-05
-2.32639e-05
5.80776e-07
1.50947e-06
1.7684e-06
5.61096e-06
3.11248e-06
8.21806e-06
4.46912e-06
9.27965e-06
5.74083e-06
9.2646e-06
6.82902e-06
8.52167e-06
7.66826e-06
7.35112e-06
8.24585e-06
5.98354e-06
8.57412e-06
4.57953e-06
8.66974e-06
3.21668e-06
8.53939e-06
1.92749e-06
8.18022e-06
7.0568e-07
7.54814e-06
-4.85998e-07
6.66054e-06
-1.70067e-06
5.50477e-06
-2.90928e-06
4.12184e-06
-4.2153e-06
2.5854e-06
-5.84994e-06
9.66838e-07
-9.41527e-06
-1.39942e-07
-1.81881e-05
-2.34039e-05
1.5395e-07
1.35552e-06
1.04721e-06
4.7177e-06
2.53084e-06
6.73443e-06
4.25968e-06
7.55081e-06
5.98844e-06
7.53584e-06
7.5294e-06
6.98071e-06
8.77985e-06
6.10067e-06
9.70999e-06
5.0534e-06
1.03149e-05
3.97464e-06
1.06059e-05
2.92564e-06
1.0589e-05
1.94436e-06
1.02698e-05
1.02492e-06
9.6021e-06
1.81697e-07
8.60814e-06
-7.06707e-07
7.2779e-06
-1.57904e-06
5.66346e-06
-2.60086e-06
3.92582e-06
-4.11229e-06
2.2488e-06
-7.73826e-06
6.56208e-07
-1.65955e-05
-2.27477e-05
-5.18841e-07
1.87437e-06
2.03253e-07
3.99561e-06
1.76613e-06
5.17155e-06
3.83821e-06
5.47873e-06
6.0024e-06
5.37165e-06
7.9718e-06
5.01131e-06
9.60981e-06
4.46267e-06
1.08748e-05
3.78836e-06
1.17494e-05
3.10008e-06
1.22496e-05
2.4254e-06
1.23791e-05
1.81495e-06
1.21574e-05
1.24655e-06
1.16088e-05
7.30331e-07
1.07037e-05
1.98394e-07
9.4468e-06
-3.22162e-07
7.91159e-06
-1.06565e-06
6.28392e-06
-2.48462e-06
4.46519e-06
-5.91953e-06
2.05909e-06
-1.41894e-05
-2.06886e-05
-4.18121e-06
6.05558e-06
-3.64383e-06
3.45823e-06
-1.24428e-06
2.77201e-06
1.56098e-06
2.67346e-06
4.30821e-06
2.62442e-06
6.85044e-06
2.46908e-06
9.07409e-06
2.23902e-06
1.09187e-05
1.94373e-06
1.23658e-05
1.653e-06
1.34423e-05
1.3489e-06
1.41653e-05
1.092e-06
1.45794e-05
8.32411e-07
1.46724e-05
6.37341e-07
1.44533e-05
4.17512e-07
1.39177e-05
2.13392e-07
1.30816e-05
-2.2948e-07
1.19328e-05
-1.33587e-06
1.0116e-05
-4.10274e-06
5.63932e-06
-9.71272e-06
-1.50493e-05
6.05558e-06
9.51381e-06
1.22858e-05
1.49593e-05
1.75837e-05
2.00528e-05
2.22918e-05
2.42355e-05
2.58885e-05
2.72374e-05
2.83294e-05
2.91618e-05
2.97992e-05
3.02167e-05
3.04301e-05
3.02006e-05
2.88647e-05
2.4762e-05
1.50493e-05
)
;

boundaryField
{
    movingWall
    {
        type            calculated;
        value           uniform 0;
    }
    fixedWalls
    {
        type            calculated;
        value           uniform 0;
    }
    frontAndBack
    {
        type            empty;
        value           nonuniform List<scalar> 0();
    }
}


// ************************************************************************* //
