/*--------------------------------*- C++ -*----------------------------------*\
| =========                 |                                                 |
| \\      /  F ield         | OpenFOAM: The Open Source CFD Toolbox           |
|  \\    /   O peration     | Version:  2212                                  |
|   \\  /    A nd           | Website:  www.openfoam.com                      |
|    \\/     M anipulation  |                                                 |
\*---------------------------------------------------------------------------*/
FoamFile
{
    version     2.0;
    format      ascii;
    arch        "LSB;label=32;scalar=64";
    class       volScalarField;
    location    "7";
    object      T;
}
// * * * * * * * * * * * * * * * * * * * * * * * * * * * * * * * * * * * * * //

dimensions      [0 0 0 1 0 0 0];

internalField   nonuniform List<scalar> 
400
(
0.773379
0.78
0.793316
0.812759
0.834927
0.854426
0.867601
0.874559
0.877866
0.879924
0.881682
0.883383
0.885088
0.8867
0.887883
0.888061
0.886285
0.881399
0.873794
0.867533
0.782201
0.790124
0.805926
0.828248
0.85123
0.867404
0.874839
0.877423
0.878517
0.87932
0.880468
0.882319
0.884974
0.888227
0.891294
0.89294
0.891287
0.884836
0.875479
0.868559
0.795827
0.8062
0.825424
0.848317
0.865993
0.873653
0.87457
0.873122
0.870953
0.869282
0.869175
0.871371
0.875901
0.882586
0.890096
0.896397
0.898062
0.891562
0.878583
0.87043
0.809099
0.822016
0.842825
0.861642
0.870612
0.869987
0.864779
0.857775
0.850613
0.845292
0.843239
0.845707
0.852417
0.863534
0.877501
0.891956
0.902388
0.902551
0.887587
0.875272
0.819431
0.833971
0.85368
0.865765
0.865779
0.85736
0.845098
0.831271
0.818507
0.80918
0.804939
0.807208
0.815639
0.83062
0.850876
0.874249
0.896415
0.910189
0.904531
0.884733
0.826565
0.841433
0.858068
0.862661
0.854299
0.838304
0.818744
0.798443
0.780788
0.768132
0.762097
0.763745
0.773067
0.790333
0.814843
0.84495
0.877199
0.905353
0.918047
0.898887
0.831058
0.845098
0.857669
0.855169
0.839478
0.816675
0.790767
0.76544
0.744374
0.729701
0.722704
0.723855
0.733348
0.751351
0.777751
0.811698
0.85063
0.889243
0.918259
0.918933
0.833618
0.846185
0.854764
0.846359
0.824639
0.796162
0.765337
0.736578
0.713525
0.69796
0.690657
0.691599
0.700838
0.718462
0.744766
0.779966
0.822908
0.869024
0.909252
0.929834
0.834836
0.84569
0.850843
0.837959
0.811711
0.779077
0.744934
0.714098
0.690017
0.674128
0.666752
0.667615
0.676549
0.693431
0.718507
0.752735
0.797021
0.84866
0.897437
0.926078
0.83514
0.844417
0.847219
0.83169
0.80263
0.767306
0.731065
0.698949
0.674225
0.658042
0.650443
0.651098
0.659753
0.676074
0.699869
0.732034
0.775195
0.829947
0.88698
0.92339
0.834797
0.842788
0.844267
0.827671
0.79737
0.760852
0.723783
0.691164
0.666055
0.649456
0.641344
0.641474
0.649644
0.665429
0.688178
0.718089
0.75851
0.81376
0.877138
0.921634
0.833969
0.841052
0.842314
0.826471
0.796775
0.760595
0.723775
0.69118
0.665771
0.648596
0.639732
0.63903
0.646343
0.66126
0.682871
0.710521
0.747271
0.801039
0.869356
0.920714
0.832672
0.839205
0.840995
0.827222
0.799678
0.765284
0.72991
0.698219
0.673077
0.65563
0.64609
0.64438
0.650436
0.663871
0.68375
0.70892
0.741385
0.791664
0.863133
0.920628
0.830825
0.837169
0.840125
0.829761
0.806171
0.775275
0.742717
0.7129
0.68862
0.67118
0.661005
0.658024
0.662331
0.673526
0.690782
0.712746
0.740548
0.786191
0.859134
0.921252
0.828293
0.834765
0.838834
0.83209
0.813379
0.78734
0.759071
0.732575
0.710436
0.69397
0.683754
0.679706
0.681995
0.690286
0.703916
0.721937
0.744854
0.78445
0.856972
0.92258
0.82522
0.831987
0.837407
0.83463
0.821788
0.801991
0.779413
0.757484
0.738514
0.723759
0.713847
0.708836
0.708754
0.713499
0.722661
0.73577
0.753468
0.785916
0.856845
0.924671
0.822275
0.828821
0.834332
0.834113
0.826433
0.813177
0.797254
0.781239
0.766882
0.755226
0.746712
0.741566
0.739628
0.741049
0.74583
0.753866
0.766953
0.793297
0.860935
0.928207
0.820166
0.827046
0.833467
0.835215
0.831946
0.824709
0.815198
0.804995
0.795257
0.786807
0.779975
0.77508
0.772129
0.771272
0.773038
0.777176
0.78706
0.807633
0.868759
0.932683
0.795431
0.823494
0.825468
0.826733
0.825214
0.822294
0.818498
0.814816
0.811339
0.808807
0.806993
0.806307
0.806627
0.807863
0.810856
0.814575
0.823995
0.840328
0.88721
0.940348
0.855933
0.873692
0.883465
0.889619
0.893243
0.895728
0.897299
0.898803
0.899958
0.901422
0.902705
0.904413
0.905964
0.90796
0.909825
0.912347
0.915401
0.921732
0.934046
0.956137
)
;

boundaryField
{
    movingWall
    {
        type            fixedValue;
        value           uniform 1;
    }
    fixedWalls
    {
        type            zeroGradient;
    }
    frontAndBack
    {
        type            empty;
    }
}


// ************************************************************************* //
