/*--------------------------------*- C++ -*----------------------------------*\
| =========                 |                                                 |
| \\      /  F ield         | OpenFOAM: The Open Source CFD Toolbox           |
|  \\    /   O peration     | Version:  2212                                  |
|   \\  /    A nd           | Website:  www.openfoam.com                      |
|    \\/     M anipulation  |                                                 |
\*---------------------------------------------------------------------------*/
FoamFile
{
    version     2.0;
    format      ascii;
    arch        "LSB;label=32;scalar=64";
    class       volVectorField;
    location    "7";
    object      U;
}
// * * * * * * * * * * * * * * * * * * * * * * * * * * * * * * * * * * * * * //

dimensions      [0 1 -1 0 0 0 0];

internalField   nonuniform List<vector> 
400
(
(0.00168051 -0.00168288 0)
(0.00483468 -0.00189101 0)
(0.00658498 -0.00120003 0)
(0.005668 -0.000574671 0)
(0.00156601 0.000184394 0)
(-0.00683267 0.00173929 0)
(-0.0206062 0.00478444 0)
(-0.0395311 0.0087318 0)
(-0.0607931 0.0112879 0)
(-0.0791156 0.0105099 0)
(-0.0897924 0.00677479 0)
(-0.0904488 0.00167149 0)
(-0.0802213 -0.00361236 0)
(-0.0599999 -0.00827047 0)
(-0.0335367 -0.0108436 0)
(-0.00531463 -0.00979388 0)
(0.0167011 -0.00477614 0)
(0.0244537 0.00277278 0)
(0.0161715 0.00646857 0)
(0.00431541 0.00471537 0)
(0.00171827 -0.00506098 0)
(0.00315645 -0.00402772 0)
(-0.000425367 0.000589858 0)
(-0.0113361 0.00644102 0)
(-0.0314251 0.0140459 0)
(-0.0611364 0.0237644 0)
(-0.0968186 0.0330474 0)
(-0.13142 0.0370783 0)
(-0.158927 0.0335078 0)
(-0.176057 0.0233986 0)
(-0.181408 0.00911359 0)
(-0.175044 -0.00698006 0)
(-0.157536 -0.0231601 0)
(-0.129637 -0.036899 0)
(-0.0936122 -0.0445531 0)
(-0.0522033 -0.0418325 0)
(-0.011416 -0.0263377 0)
(0.016872 -0.00129001 0)
(0.0178625 0.0162129 0)
(0.00554057 0.014814 0)
(-0.000241789 -0.00577214 0)
(-0.00538552 0.000809234 0)
(-0.0196118 0.0142992 0)
(-0.044498 0.0312267 0)
(-0.0803201 0.0494267 0)
(-0.122166 0.0642949 0)
(-0.162297 0.0705198 0)
(-0.195208 0.0660069 0)
(-0.218794 0.052178 0)
(-0.23246 0.0315315 0)
(-0.236218 0.00642518 0)
(-0.230737 -0.0210946 0)
(-0.216332 -0.048847 0)
(-0.192497 -0.0731983 0)
(-0.158973 -0.0890012 0)
(-0.115723 -0.0892135 0)
(-0.0645593 -0.0670272 0)
(-0.0138305 -0.0226799 0)
(0.00947515 0.0179006 0)
(0.00415522 0.0235702 0)
(-0.00347216 0.000463279 0)
(-0.0175128 0.0172452 0)
(-0.0435067 0.0414912 0)
(-0.0796585 0.0681705 0)
(-0.122917 0.0911255 0)
(-0.165793 0.103809 0)
(-0.20185 0.102867 0)
(-0.229163 0.0896431 0)
(-0.247994 0.0673091 0)
(-0.258945 0.0385767 0)
(-0.262853 0.00532973 0)
(-0.260525 -0.03109 0)
(-0.2519 -0.0684168 0)
(-0.235932 -0.103699 0)
(-0.210634 -0.131448 0)
(-0.173303 -0.142857 0)
(-0.121377 -0.125748 0)
(-0.0568389 -0.0708586 0)
(-0.000992365 0.00354582 0)
(0.00474209 0.028228 0)
(-0.00666088 0.0147896 0)
(-0.0287207 0.0441069 0)
(-0.063268 0.0770716 0)
(-0.104422 0.108881 0)
(-0.147223 0.13116 0)
(-0.184508 0.138147 0)
(-0.212834 0.129459 0)
(-0.232606 0.108712 0)
(-0.245115 0.0797754 0)
(-0.252086 0.045442 0)
(-0.255204 0.00725407 0)
(-0.255389 -0.0339649 0)
(-0.252418 -0.0770351 0)
(-0.245748 -0.120629 0)
(-0.232566 -0.160763 0)
(-0.208259 -0.18898 0)
(-0.166775 -0.189944 0)
(-0.103425 -0.142865 0)
(-0.0221836 -0.0388681 0)
(0.00737848 0.0270858 0)
(-0.00850715 0.0348719 0)
(-0.0351626 0.0766229 0)
(-0.0730624 0.114916 0)
(-0.113216 0.14765 0)
(-0.150463 0.165975 0)
(-0.179313 0.165912 0)
(-0.198826 0.149709 0)
(-0.21056 0.122461 0)
(-0.216498 0.0885153 0)
(-0.219121 0.0508597 0)
(-0.220386 0.0109681 0)
(-0.22129 -0.0307208 0)
(-0.222031 -0.0746634 0)
(-0.222718 -0.121221 0)
(-0.221162 -0.169162 0)
(-0.212277 -0.212998 0)
(-0.187974 -0.238538 0)
(-0.139652 -0.218507 0)
(-0.0628331 -0.118932 0)
(0.00584278 0.0141917 0)
(-0.00828834 0.0569937 0)
(-0.0353248 0.109982 0)
(-0.0718037 0.150446 0)
(-0.107028 0.181123 0)
(-0.136649 0.193811 0)
(-0.157043 0.186418 0)
(-0.168941 0.163261 0)
(-0.174465 0.130488 0)
(-0.176024 0.0928601 0)
(-0.17611 0.0533911 0)
(-0.176216 0.0133253 0)
(-0.177018 -0.0272676 0)
(-0.17906 -0.0695063 0)
(-0.182886 -0.11464 0)
(-0.187855 -0.163767 0)
(-0.190346 -0.215742 0)
(-0.182476 -0.261606 0)
(-0.154241 -0.275139 0)
(-0.0993732 -0.205883 0)
(-0.00890742 -0.0146335 0)
(-0.00613158 0.0775785 0)
(-0.0297769 0.140521 0)
(-0.0613973 0.18117 0)
(-0.0898542 0.208271 0)
(-0.111852 0.214856 0)
(-0.125378 0.200532 0)
(-0.132054 0.171305 0)
(-0.134189 0.134153 0)
(-0.134234 0.0940561 0)
(-0.134119 0.0537202 0)
(-0.134517 0.0138696 0)
(-0.135609 -0.0258409 0)
(-0.137849 -0.066398 0)
(-0.14193 -0.108989 0)
(-0.148467 -0.155567 0)
(-0.156157 -0.208491 0)
(-0.159034 -0.265836 0)
(-0.146721 -0.308088 0)
(-0.112232 -0.277176 0)
(-0.0309558 -0.0753289 0)
(-0.00272739 0.0935878 0)
(-0.0204067 0.1656 0)
(-0.04513 0.205551 0)
(-0.0663146 0.228529 0)
(-0.0815739 0.229487 0)
(-0.0900548 0.209501 0)
(-0.0936741 0.175753 0)
(-0.09457 0.135725 0)
(-0.0948308 0.0943976 0)
(-0.0956126 0.0539876 0)
(-0.0969541 0.0145933 0)
(-0.0987618 -0.0245357 0)
(-0.101203 -0.0641382 0)
(-0.104783 -0.104873 0)
(-0.110649 -0.148338 0)
(-0.119535 -0.198465 0)
(-0.128311 -0.25972 0)
(-0.126502 -0.323407 0)
(-0.107463 -0.334723 0)
(-0.0373409 -0.163405 0)
(0.00121995 0.102727 0)
(-0.00893631 0.183432 0)
(-0.0256303 0.223097 0)
(-0.0396216 0.242705 0)
(-0.0490942 0.239465 0)
(-0.0539595 0.215492 0)
(-0.0559186 0.178738 0)
(-0.0566186 0.137049 0)
(-0.057567 0.0953134 0)
(-0.0592993 0.055215 0)
(-0.0615861 0.0163021 0)
(-0.0642837 -0.0224441 0)
(-0.0673838 -0.0616383 0)
(-0.0710655 -0.101487 0)
(-0.0762619 -0.142668 0)
(-0.0845437 -0.188813 0)
(-0.0960321 -0.248265 0)
(-0.100636 -0.324263 0)
(-0.0951627 -0.372184 0)
(-0.0309191 -0.242541 0)
(0.00511612 0.10389 0)
(0.00295829 0.193026 0)
(-0.00538413 0.233586 0)
(-0.0124963 0.250731 0)
(-0.016883 0.244641 0)
(-0.0187655 0.218424 0)
(-0.0194477 0.180363 0)
(-0.0199688 0.138295 0)
(-0.0212609 0.096858 0)
(-0.0234925 0.0573566 0)
(-0.0263783 0.0190667 0)
(-0.0298591 -0.0191244 0)
(-0.0339513 -0.0578793 0)
(-0.0385948 -0.097256 0)
(-0.0443365 -0.137179 0)
(-0.0524064 -0.180043 0)
(-0.0657365 -0.235545 0)
(-0.0742146 -0.31803 0)
(-0.0811941 -0.396683 0)
(-0.0229403 -0.307092 0)
(0.00845173 0.0974179 0)
(0.0142135 0.194017 0)
(0.0140973 0.237106 0)
(0.0137037 0.25351 0)
(0.0143271 0.246424 0)
(0.0155245 0.219715 0)
(0.016385 0.181667 0)
(0.0164396 0.13996 0)
(0.0153015 0.099041 0)
(0.0130231 0.0601516 0)
(0.00985495 0.0226049 0)
(0.00574896 -0.0147154 0)
(0.000562178 -0.0526014 0)
(-0.00555791 -0.0911556 0)
(-0.0130198 -0.130012 0)
(-0.0219663 -0.170178 0)
(-0.0377099 -0.220578 0)
(-0.0487348 -0.304386 0)
(-0.0679064 -0.408429 0)
(-0.0144601 -0.359973 0)
(0.0103199 0.0844476 0)
(0.0234029 0.186424 0)
(0.0310627 0.233231 0)
(0.0369892 0.250056 0)
(0.0426475 0.24321 0)
(0.0475985 0.217424 0)
(0.0510315 0.180664 0)
(0.0527023 0.140267 0)
(0.0525649 0.100525 0)
(0.0508296 0.0627501 0)
(0.0477165 0.0264327 0)
(0.0431099 -0.00948975 0)
(0.0368424 -0.0459148 0)
(0.0290359 -0.0830037 0)
(0.0188937 -0.120393 0)
(0.00757793 -0.158314 0)
(-0.0118291 -0.204287 0)
(-0.0242576 -0.286386 0)
(-0.0558536 -0.41094 0)
(-0.00614065 -0.401827 0)
(0.00986774 0.0672112 0)
(0.0290071 0.170625 0)
(0.0443244 0.222147 0)
(0.0568596 0.241228 0)
(0.068146 0.236294 0)
(0.0778256 0.212931 0)
(0.0850387 0.178642 0)
(0.0894844 0.14031 0)
(0.0912396 0.102168 0)
(0.0906055 0.0657626 0)
(0.0879142 0.0309543 0)
(0.0828654 -0.00327736 0)
(0.0753575 -0.0374726 0)
(0.0656761 -0.0722118 0)
(0.0524414 -0.107303 0)
(0.0375244 -0.142629 0)
(0.0130993 -0.184123 0)
(5.08043e-05 -0.263153 0)
(-0.0448129 -0.406648 0)
(0.0027605 -0.436215 0)
(0.00692213 0.0493904 0)
(0.0293389 0.148918 0)
(0.051074 0.203569 0)
(0.0699418 0.224471 0)
(0.0874077 0.221606 0)
(0.103092 0.201447 0)
(0.115751 0.170857 0)
(0.124704 0.135977 0)
(0.129863 0.100797 0)
(0.131473 0.0669953 0)
(0.129802 0.0348217 0)
(0.124877 0.00344975 0)
(0.116252 -0.0274068 0)
(0.104531 -0.058609 0)
(0.0874565 -0.0902026 0)
(0.0682867 -0.1228 0)
(0.0382457 -0.160723 0)
(0.023825 -0.237064 0)
(-0.0344589 -0.398906 0)
(0.0134673 -0.464388 0)
(0.00238409 0.0346341 0)
(0.0236186 0.123869 0)
(0.0509179 0.179892 0)
(0.0766353 0.202873 0)
(0.101287 0.202553 0)
(0.124157 0.186151 0)
(0.143597 0.160098 0)
(0.158391 0.129677 0)
(0.168123 0.0984995 0)
(0.173002 0.0682557 0)
(0.172969 0.0395414 0)
(0.168738 0.0119493 0)
(0.158908 -0.0148666 0)
(0.145185 -0.0416417 0)
(0.123902 -0.0686596 0)
(0.100384 -0.0974453 0)
(0.0645562 -0.1326 0)
(0.0469694 -0.207383 0)
(-0.0227269 -0.387044 0)
(0.028522 -0.485532 0)
(-0.00342428 0.0286318 0)
(0.0100563 0.10149 0)
(0.0370757 0.148656 0)
(0.0689236 0.169403 0)
(0.101802 0.170615 0)
(0.133506 0.158322 0)
(0.161487 0.13789 0)
(0.184017 0.113496 0)
(0.200051 0.088221 0)
(0.209963 0.0635967 0)
(0.21288 0.0403674 0)
(0.210622 0.0184133 0)
(0.200363 -0.00264065 0)
(0.185742 -0.0232559 0)
(0.160947 -0.043905 0)
(0.134354 -0.0676573 0)
(0.0928528 -0.101608 0)
(0.0698393 -0.179953 0)
(-0.00438821 -0.370028 0)
(0.052151 -0.491628 0)
(-0.0139998 0.018535 0)
(-0.00751412 0.0881802 0)
(0.0191981 0.124174 0)
(0.0564108 0.137283 0)
(0.0975436 0.136864 0)
(0.137906 0.127678 0)
(0.174139 0.113023 0)
(0.203965 0.0952498 0)
(0.225845 0.0767864 0)
(0.240924 0.0586493 0)
(0.246952 0.0417919 0)
(0.247865 0.0261134 0)
(0.238534 0.0117671 0)
(0.226727 -0.00201129 0)
(0.20175 -0.0160399 0)
(0.177793 -0.0349716 0)
(0.133478 -0.0677508 0)
(0.107802 -0.145972 0)
(0.0374554 -0.326116 0)
(0.0923606 -0.45587 0)
(-0.106011 0.0824305 0)
(-0.0777518 0.069002 0)
(-0.0485692 0.0733632 0)
(0.00376266 0.0778715 0)
(0.0572574 0.0781982 0)
(0.109968 0.0739311 0)
(0.157117 0.0665967 0)
(0.19946 0.0571953 0)
(0.231556 0.0475254 0)
(0.259696 0.0378759 0)
(0.275419 0.0292174 0)
(0.290573 0.0212392 0)
(0.290933 0.01449 0)
(0.295055 0.00811239 0)
(0.278775 0.00114989 0)
(0.271582 -0.00998809 0)
(0.232294 -0.0355466 0)
(0.218121 -0.0954101 0)
(0.150205 -0.229723 0)
(0.170671 -0.341458 0)
(0.129974 0.103748 0)
(0.15833 0.0752368 0)
(0.212181 0.053238 0)
(0.270689 0.0416311 0)
(0.323259 0.0359186 0)
(0.375689 0.0319515 0)
(0.420271 0.0289178 0)
(0.465576 0.0255816 0)
(0.49866 0.0229038 0)
(0.533901 0.019712 0)
(0.553335 0.0175503 0)
(0.579145 0.0146134 0)
(0.585286 0.0131699 0)
(0.603634 0.0103519 0)
(0.595066 0.00939027 0)
(0.603581 0.0050058 0)
(0.567786 9.39605e-05 0)
(0.547621 -0.0183132 0)
(0.435705 -0.0504146 0)
(0.336761 -0.101387 0)
)
;

boundaryField
{
    movingWall
    {
        type            fixedValue;
        value           uniform (1 0 0);
    }
    fixedWalls
    {
        type            noSlip;
    }
    frontAndBack
    {
        type            empty;
    }
}


// ************************************************************************* //
