/*--------------------------------*- C++ -*----------------------------------*\
| =========                 |                                                 |
| \\      /  F ield         | OpenFOAM: The Open Source CFD Toolbox           |
|  \\    /   O peration     | Version:  2212                                  |
|   \\  /    A nd           | Website:  www.openfoam.com                      |
|    \\/     M anipulation  |                                                 |
\*---------------------------------------------------------------------------*/
FoamFile
{
    version     2.0;
    format      ascii;
    arch        "LSB;label=32;scalar=64";
    class       surfaceScalarField;
    location    "1.8";
    object      phi;
}
// * * * * * * * * * * * * * * * * * * * * * * * * * * * * * * * * * * * * * //

dimensions      [0 3 -1 0 0 0 0];

oriented        oriented;

internalField   nonuniform List<scalar> 
760
(
7.84394e-08
-7.84387e-08
1.24753e-07
-4.63132e-08
1.00921e-07
2.38325e-08
-1.24688e-08
1.1339e-07
-2.48305e-07
2.35836e-07
-6.50632e-07
4.02327e-07
-1.24587e-06
5.9524e-07
-1.99662e-06
7.50751e-07
-2.7776e-06
7.80979e-07
-3.41101e-06
6.33404e-07
-3.73699e-06
3.25983e-07
-3.66382e-06
-7.31705e-08
-3.10423e-06
-5.59591e-07
-2.14377e-06
-9.60457e-07
-9.69976e-07
-1.1738e-06
1.06444e-07
-1.07642e-06
7.75652e-07
-6.69208e-07
7.95588e-07
-1.99361e-08
3.68539e-07
4.27049e-07
3.68539e-07
6.84475e-09
-8.52833e-08
-1.22789e-07
8.33212e-08
-4.43305e-07
3.44348e-07
-1.02229e-06
6.92377e-07
-1.91532e-06
1.12887e-06
-3.11011e-06
1.59711e-06
-4.47753e-06
1.96267e-06
-5.79492e-06
2.06814e-06
-6.84203e-06
1.82809e-06
-7.47266e-06
1.26403e-06
-7.61631e-06
4.69632e-07
-7.22571e-06
-4.63765e-07
-6.32607e-06
-1.45924e-06
-4.94393e-06
-2.34259e-06
-3.20776e-06
-2.90996e-06
-1.38673e-06
-2.89745e-06
4.80247e-08
-2.10397e-06
6.77942e-07
-6.49854e-07
4.34564e-07
6.70427e-07
8.03103e-07
-1.75163e-07
8.98797e-08
-6.21176e-07
5.29335e-07
-1.36648e-06
1.08965e-06
-2.4705e-06
1.7964e-06
-3.91749e-06
2.57585e-06
-5.55637e-06
3.236e-06
-7.14754e-06
3.55384e-06
-8.48324e-06
3.40383e-06
-9.45485e-06
2.79971e-06
-1.00201e-05
1.82929e-06
-1.01394e-05
5.88936e-07
-9.80481e-06
-7.9838e-07
-9.02512e-06
-2.23892e-06
-7.75762e-06
-3.6101e-06
-5.98888e-06
-4.6787e-06
-3.82374e-06
-5.06259e-06
-1.61969e-06
-4.30802e-06
-7.57246e-08
-2.19382e-06
2.69169e-07
3.25535e-07
1.07227e-06
-4.06349e-07
4.96229e-07
-1.21516e-06
1.33814e-06
-2.36672e-06
2.24122e-06
-3.86237e-06
3.29205e-06
-5.58882e-06
4.3023e-06
-7.32622e-06
4.9734e-06
-8.85918e-06
5.0868e-06
-1.00689e-05
4.6135e-06
-1.09312e-05
3.66204e-06
-1.14572e-05
2.35529e-06
-1.16323e-05
7.64038e-07
-1.1473e-05
-9.57651e-07
-1.09774e-05
-2.73454e-06
-1.00539e-05
-4.53365e-06
-8.5902e-06
-6.14235e-06
-6.48349e-06
-7.1693e-06
-3.81335e-06
-6.97816e-06
-1.17532e-06
-4.83184e-06
1.16598e-07
-9.66385e-07
1.18887e-06
-6.27223e-07
1.12345e-06
-1.73525e-06
2.44617e-06
-3.15829e-06
3.66425e-06
-4.82569e-06
4.95945e-06
-6.56435e-06
6.04096e-06
-8.1575e-06
6.56655e-06
-9.45807e-06
6.38736e-06
-1.0425e-05
5.5804e-06
-1.10818e-05
4.31889e-06
-1.14766e-05
2.7501e-06
-1.16668e-05
9.54214e-07
-1.16722e-05
-9.52257e-07
-1.14868e-05
-2.91998e-06
-1.10331e-05
-4.98728e-06
-1.01439e-05
-7.0316e-06
-8.5632e-06
-8.74998e-06
-6.05783e-06
-9.48353e-06
-2.79039e-06
-8.09929e-06
-2.17396e-07
-3.53938e-06
9.71473e-07
-7.66169e-07
1.88962e-06
-2.0349e-06
3.71491e-06
-3.54041e-06
5.16976e-06
-5.15693e-06
6.57597e-06
-6.69946e-06
7.58349e-06
-7.99648e-06
7.86356e-06
-8.96485e-06
7.35574e-06
-9.61371e-06
6.22926e-06
-1.00014e-05
4.70656e-06
-1.02078e-05
2.95656e-06
-1.0334e-05
1.0804e-06
-1.04227e-05
-8.63618e-07
-1.04632e-05
-2.87942e-06
-1.04364e-05
-5.01412e-06
-1.01969e-05
-7.27106e-06
-9.43021e-06
-9.51668e-06
-7.68764e-06
-1.12261e-05
-4.64921e-06
-1.11377e-05
-9.91796e-07
-7.19679e-06
-2.03234e-08
-7.81459e-07
2.67108e-06
-2.04516e-06
4.97861e-06
-3.45688e-06
6.58148e-06
-4.86366e-06
7.98275e-06
-6.10701e-06
8.82683e-06
-7.0676e-06
8.82415e-06
-7.71193e-06
8.00007e-06
-8.08121e-06
6.59855e-06
-8.25512e-06
4.88047e-06
-8.32382e-06
3.02525e-06
-8.37265e-06
1.12923e-06
-8.45219e-06
-7.84075e-07
-8.57674e-06
-2.75488e-06
-8.7706e-06
-4.82025e-06
-8.97957e-06
-7.0621e-06
-8.95899e-06
-9.53726e-06
-8.19275e-06
-1.19923e-05
-5.9969e-06
-1.33336e-05
-2.12938e-06
-1.10643e-05
-2.14971e-06
-6.70691e-07
3.34177e-06
-1.78212e-06
6.09004e-06
-2.97825e-06
7.77761e-06
-4.09964e-06
9.10414e-06
-5.02891e-06
9.75611e-06
-5.69639e-06
9.49163e-06
-6.10358e-06
8.40726e-06
-6.30824e-06
6.80321e-06
-6.39228e-06
4.9645e-06
-6.43198e-06
3.06496e-06
-6.47331e-06
1.17056e-06
-6.53606e-06
-7.21322e-07
-6.6493e-06
-2.64164e-06
-6.86367e-06
-4.60588e-06
-7.2132e-06
-6.71257e-06
-7.60138e-06
-9.14908e-06
-7.58344e-06
-1.20103e-05
-6.34295e-06
-1.4574e-05
-3.22805e-06
-1.41792e-05
-5.37775e-06
-4.60952e-07
3.80272e-06
-1.3189e-06
6.94798e-06
-2.23511e-06
8.69383e-06
-3.05377e-06
9.92279e-06
-3.69843e-06
1.04008e-05
-4.14119e-06
9.93439e-06
-4.40475e-06
8.67082e-06
-4.54736e-06
6.94581e-06
-4.63662e-06
5.05376e-06
-4.7191e-06
3.14744e-06
-4.80467e-06
1.25612e-06
-4.88492e-06
-6.41075e-07
-4.97798e-06
-2.54858e-06
-5.13195e-06
-4.45191e-06
-5.44011e-06
-6.40441e-06
-5.93394e-06
-8.65525e-06
-6.3535e-06
-1.15907e-05
-5.90766e-06
-1.50199e-05
-3.70701e-06
-1.63799e-05
-9.08477e-06
-1.90728e-07
3.99345e-06
-7.37206e-07
7.49446e-06
-1.34726e-06
9.30388e-06
-1.87219e-06
1.04477e-05
-2.26798e-06
1.07966e-05
-2.5384e-06
1.02048e-05
-2.71432e-06
8.84674e-06
-2.84146e-06
7.07295e-06
-2.96224e-06
5.17455e-06
-3.09688e-06
3.28208e-06
-3.23763e-06
1.39688e-06
-3.36448e-06
-5.14229e-07
-3.47755e-06
-2.43551e-06
-3.60277e-06
-4.32669e-06
-3.83302e-06
-6.17417e-06
-4.29968e-06
-8.18858e-06
-4.92799e-06
-1.09624e-05
-5.03745e-06
-1.49104e-05
-3.4709e-06
-1.79464e-05
-1.25557e-05
9.04692e-08
3.90298e-06
-1.15983e-07
7.70091e-06
-4.22234e-07
9.61013e-06
-6.73391e-07
1.06989e-05
-8.45737e-07
1.09689e-05
-9.59916e-07
1.0319e-05
-1.0512e-06
8.93802e-06
-1.15239e-06
7.17414e-06
-1.28121e-06
5.30336e-06
-1.43862e-06
3.43949e-06
-1.61545e-06
1.5737e-06
-1.79756e-06
-3.32116e-07
-1.97336e-06
-2.2597e-06
-2.14771e-06
-4.15235e-06
-2.37717e-06
-5.9447e-06
-2.81443e-06
-7.75132e-06
-3.5364e-06
-1.02404e-05
-4.02228e-06
-1.44246e-05
-3.00663e-06
-1.89621e-05
-1.55623e-05
3.213e-07
3.58168e-06
4.46792e-07
7.57542e-06
4.63615e-07
9.59331e-06
4.94935e-07
1.06676e-05
5.50911e-07
1.09129e-05
6.00263e-07
1.02696e-05
6.09115e-07
8.92917e-06
5.62745e-07
7.22051e-06
4.62975e-07
5.40313e-06
3.18548e-07
3.58392e-06
1.35409e-07
1.75684e-06
-8.67858e-08
-1.09922e-07
-3.41898e-07
-2.00459e-06
-6.30114e-07
-3.86413e-06
-9.70138e-07
-5.60468e-06
-1.44769e-06
-7.27377e-06
-2.24969e-06
-9.43844e-06
-3.02164e-06
-1.36526e-05
-2.49947e-06
-1.94842e-05
-1.80618e-05
4.88531e-07
3.09315e-06
9.16417e-07
7.14754e-06
1.23175e-06
9.27797e-06
1.54906e-06
1.03503e-05
1.86305e-06
1.05989e-05
2.11315e-06
1.00195e-05
2.26266e-06
8.77966e-06
2.31158e-06
7.17159e-06
2.27777e-06
5.43694e-06
2.17467e-06
3.68701e-06
1.99997e-06
1.93155e-06
1.73454e-06
1.55506e-07
1.39188e-06
-1.66193e-06
9.69933e-07
-3.44219e-06
4.69982e-07
-5.10472e-06
-1.84659e-07
-6.61913e-06
-1.07568e-06
-8.54742e-06
-2.06277e-06
-1.26655e-05
-1.99807e-06
-1.95489e-05
-2.00598e-05
5.57824e-07
2.53533e-06
1.22916e-06
6.4762e-06
1.82466e-06
8.68247e-06
2.42198e-06
9.75294e-06
3.00564e-06
1.00153e-05
3.50048e-06
9.52469e-06
3.85294e-06
8.4272e-06
4.05653e-06
6.96801e-06
4.13116e-06
5.36231e-06
4.09362e-06
3.72456e-06
3.93916e-06
2.086e-06
3.65097e-06
4.43701e-07
3.21511e-06
-1.22608e-06
2.63925e-06
-2.86632e-06
1.93292e-06
-4.3984e-06
1.11403e-06
-5.80024e-06
6.1164e-08
-7.49455e-06
-1.16119e-06
-1.14432e-05
-1.52566e-06
-1.91844e-05
-2.15855e-05
5.0492e-07
2.03041e-06
1.29624e-06
5.68488e-06
2.11606e-06
7.86265e-06
2.98454e-06
8.88446e-06
3.86317e-06
9.13665e-06
4.65298e-06
8.73487e-06
5.27422e-06
7.80597e-06
5.69998e-06
6.54225e-06
5.93884e-06
5.12344e-06
6.00518e-06
3.65822e-06
5.89669e-06
2.19449e-06
5.59428e-06
7.46117e-07
5.07198e-06
-7.03772e-07
4.34541e-06
-2.13976e-06
3.42277e-06
-3.47575e-06
2.35862e-06
-4.7361e-06
1.09789e-06
-6.23381e-06
-3.497e-07
-9.99558e-06
-1.05143e-06
-1.84827e-05
-2.26369e-05
3.42083e-07
1.68833e-06
1.11421e-06
4.91276e-06
2.12399e-06
6.85287e-06
3.25798e-06
7.75047e-06
4.43794e-06
7.95669e-06
5.54349e-06
7.62933e-06
6.46798e-06
6.88147e-06
7.15912e-06
5.85111e-06
7.60542e-06
4.67715e-06
7.81093e-06
3.45271e-06
7.77388e-06
2.23154e-06
7.48585e-06
1.03415e-06
6.88948e-06
-1.07405e-07
6.02653e-06
-1.27681e-06
4.89529e-06
-2.34451e-06
3.57912e-06
-3.41993e-06
2.13712e-06
-4.79182e-06
5.87416e-07
-8.44587e-06
-3.41481e-07
-1.75538e-05
-2.29784e-05
-2.09092e-09
1.69042e-06
4.9623e-07
4.41444e-06
1.57062e-06
5.77848e-06
2.9646e-06
6.35649e-06
4.4804e-06
6.44089e-06
5.94128e-06
6.16844e-06
7.21098e-06
5.61178e-06
8.21733e-06
4.84476e-06
8.92264e-06
3.97184e-06
9.31901e-06
3.05634e-06
9.39226e-06
2.15829e-06
9.1402e-06
1.28621e-06
8.558e-06
4.74791e-07
7.60487e-06
-3.23678e-07
6.34944e-06
-1.08908e-06
4.8615e-06
-1.93199e-06
3.33033e-06
-3.26065e-06
1.86428e-06
-6.97982e-06
5.0444e-07
-1.6194e-05
-2.2474e-05
-4.39307e-07
2.12972e-06
-8.76413e-08
4.06277e-06
9.57421e-07
4.73342e-06
2.51346e-06
4.80045e-06
4.28529e-06
4.66906e-06
6.02655e-06
4.42718e-06
7.57399e-06
4.06434e-06
8.84503e-06
3.57371e-06
9.78153e-06
3.03535e-06
1.03744e-05
2.46344e-06
1.06072e-05
1.92553e-06
1.04932e-05
1.40016e-06
1.00269e-05
9.41167e-07
9.22799e-06
4.75191e-07
8.15311e-06
-1.41986e-08
6.84985e-06
-6.2873e-07
5.54283e-06
-1.95362e-06
4.0447e-06
-5.4817e-06
1.88298e-06
-1.40322e-05
-2.0591e-05
-4.09235e-06
6.22207e-06
-3.67679e-06
3.64721e-06
-1.66832e-06
2.72495e-06
6.51277e-07
2.48085e-06
2.96002e-06
2.36031e-06
5.17603e-06
2.21117e-06
7.20509e-06
2.03528e-06
8.97152e-06
1.80727e-06
1.04249e-05
1.58197e-06
1.15611e-05
1.32721e-06
1.23744e-05
1.11227e-06
1.28944e-05
8.80146e-07
1.31187e-05
7.16842e-07
1.30806e-05
5.13309e-07
1.27263e-05
3.40131e-07
1.21149e-05
-1.73729e-08
1.1298e-05
-1.13668e-06
9.8159e-06
-3.99962e-06
5.51468e-06
-9.73102e-06
-1.50763e-05
6.22207e-06
9.86928e-06
1.25942e-05
1.50751e-05
1.74354e-05
1.96466e-05
2.16819e-05
2.34891e-05
2.50711e-05
2.63983e-05
2.75106e-05
2.83907e-05
2.91076e-05
2.96209e-05
2.9961e-05
2.99436e-05
2.8807e-05
2.48073e-05
1.50763e-05
)
;

boundaryField
{
    movingWall
    {
        type            calculated;
        value           uniform 0;
    }
    fixedWalls
    {
        type            calculated;
        value           uniform 0;
    }
    frontAndBack
    {
        type            empty;
        value           nonuniform List<scalar> 0();
    }
}


// ************************************************************************* //
