/*--------------------------------*- C++ -*----------------------------------*\
| =========                 |                                                 |
| \\      /  F ield         | OpenFOAM: The Open Source CFD Toolbox           |
|  \\    /   O peration     | Version:  2212                                  |
|   \\  /    A nd           | Website:  www.openfoam.com                      |
|    \\/     M anipulation  |                                                 |
\*---------------------------------------------------------------------------*/
FoamFile
{
    version     2.0;
    format      ascii;
    arch        "LSB;label=32;scalar=64";
    class       volVectorField;
    location    "0.0001";
    object      U;
}
// * * * * * * * * * * * * * * * * * * * * * * * * * * * * * * * * * * * * * //

dimensions      [0 1 -1 0 0 0 0];

internalField   nonuniform List<vector> 
65536
(
(0.000677037 -0.000677014 0)
(0.00203107 -0.000676968 0)
(0.00338496 -0.000676877 0)
(0.00473862 -0.00067674 0)
(0.00609196 -0.000676556 0)
(0.00744489 -0.000676326 0)
(0.00879731 -0.000676049 0)
(0.0101491 -0.000675725 0)
(0.0115003 -0.000675353 0)
(0.0128506 -0.000674932 0)
(0.0142 -0.000674463 0)
(0.0155485 -0.000673943 0)
(0.0168959 -0.000673372 0)
(0.018242 -0.00067275 0)
(0.0195869 -0.000672075 0)
(0.0209304 -0.000671346 0)
(0.0222724 -0.000670563 0)
(0.0236127 -0.000669723 0)
(0.0249513 -0.000668826 0)
(0.0262881 -0.000667871 0)
(0.0276228 -0.000666855 0)
(0.0289555 -0.000665778 0)
(0.030286 -0.000664638 0)
(0.0316142 -0.000663434 0)
(0.0329398 -0.000662164 0)
(0.0342629 -0.000660826 0)
(0.0355832 -0.000659419 0)
(0.0369006 -0.000657941 0)
(0.038215 -0.00065639 0)
(0.0395263 -0.000654765 0)
(0.0408342 -0.000653064 0)
(0.0421386 -0.000651285 0)
(0.0434394 -0.000649426 0)
(0.0447364 -0.000647485 0)
(0.0460294 -0.000645461 0)
(0.0473183 -0.000643351 0)
(0.0486029 -0.000641153 0)
(0.049883 -0.000638867 0)
(0.0511585 -0.000636489 0)
(0.0524291 -0.000634019 0)
(0.0536946 -0.000631453 0)
(0.054955 -0.000628791 0)
(0.0562099 -0.00062603 0)
(0.0574592 -0.000623169 0)
(0.0587027 -0.000620206 0)
(0.0599401 -0.000617139 0)
(0.0611713 -0.000613966 0)
(0.0623961 -0.000610686 0)
(0.0636142 -0.000607297 0)
(0.0648254 -0.000603798 0)
(0.0660295 -0.000600187 0)
(0.0672263 -0.000596463 0)
(0.0684155 -0.000592623 0)
(0.0695969 -0.000588668 0)
(0.0707702 -0.000584596 0)
(0.0719354 -0.000580405 0)
(0.073092 -0.000576094 0)
(0.0742399 -0.000571663 0)
(0.0753788 -0.00056711 0)
(0.0765084 -0.000562435 0)
(0.0776286 -0.000557637 0)
(0.0787391 -0.000552716 0)
(0.0798396 -0.00054767 0)
(0.0809299 -0.0005425 0)
(0.0820097 -0.000537205 0)
(0.0830788 -0.000531784 0)
(0.084137 -0.000526239 0)
(0.0851839 -0.000520568 0)
(0.0862194 -0.000514772 0)
(0.0872431 -0.000508851 0)
(0.0882549 -0.000502805 0)
(0.0892545 -0.000496636 0)
(0.0902416 -0.000490342 0)
(0.091216 -0.000483926 0)
(0.0921774 -0.000477387 0)
(0.0931256 -0.000470728 0)
(0.0940604 -0.000463948 0)
(0.0949816 -0.000457048 0)
(0.0958888 -0.000450031 0)
(0.0967818 -0.000442897 0)
(0.0976605 -0.000435648 0)
(0.0985245 -0.000428285 0)
(0.0993737 -0.00042081 0)
(0.100208 -0.000413224 0)
(0.101027 -0.00040553 0)
(0.10183 -0.000397728 0)
(0.102618 -0.000389822 0)
(0.103389 -0.000381813 0)
(0.104145 -0.000373703 0)
(0.104884 -0.000365495 0)
(0.105607 -0.00035719 0)
(0.106313 -0.00034879 0)
(0.107002 -0.000340299 0)
(0.107675 -0.000331719 0)
(0.108329 -0.000323052 0)
(0.108967 -0.000314299 0)
(0.109587 -0.000305465 0)
(0.110189 -0.000296552 0)
(0.110773 -0.000287561 0)
(0.111339 -0.000278496 0)
(0.111887 -0.00026936 0)
(0.112417 -0.000260154 0)
(0.112928 -0.000250881 0)
(0.11342 -0.000241545 0)
(0.113894 -0.000232148 0)
(0.114349 -0.000222692 0)
(0.114785 -0.00021318 0)
(0.115202 -0.000203614 0)
(0.115599 -0.000193998 0)
(0.115978 -0.000184334 0)
(0.116337 -0.000174625 0)
(0.116676 -0.000164872 0)
(0.116996 -0.000155079 0)
(0.117297 -0.000145249 0)
(0.117577 -0.000135383 0)
(0.117838 -0.000125484 0)
(0.118079 -0.000115555 0)
(0.1183 -0.000105599 0)
(0.118502 -9.56173e-05 0)
(0.118683 -8.56129e-05 0)
(0.118844 -7.55881e-05 0)
(0.118985 -6.55455e-05 0)
(0.119106 -5.54874e-05 0)
(0.119207 -4.54162e-05 0)
(0.119288 -3.53344e-05 0)
(0.119349 -2.52442e-05 0)
(0.119389 -1.51481e-05 0)
(0.119409 -5.0484e-06 0)
(0.119409 5.05246e-06 0)
(0.119389 1.51521e-05 0)
(0.119348 2.52482e-05 0)
(0.119288 3.53384e-05 0)
(0.119207 4.54202e-05 0)
(0.119106 5.54914e-05 0)
(0.118985 6.55494e-05 0)
(0.118844 7.5592e-05 0)
(0.118683 8.56167e-05 0)
(0.118502 9.56211e-05 0)
(0.1183 0.000105603 0)
(0.118079 0.000115559 0)
(0.117838 0.000125488 0)
(0.117577 0.000135386 0)
(0.117296 0.000145252 0)
(0.116996 0.000155083 0)
(0.116676 0.000164875 0)
(0.116337 0.000174628 0)
(0.115977 0.000184337 0)
(0.115599 0.000194002 0)
(0.115201 0.000203618 0)
(0.114785 0.000213183 0)
(0.114349 0.000222695 0)
(0.113894 0.000232151 0)
(0.11342 0.000241548 0)
(0.112928 0.000250884 0)
(0.112416 0.000260156 0)
(0.111887 0.000269362 0)
(0.111339 0.000278499 0)
(0.110773 0.000287564 0)
(0.110189 0.000296554 0)
(0.109586 0.000305468 0)
(0.108967 0.000314302 0)
(0.108329 0.000323053 0)
(0.107674 0.000331721 0)
(0.107002 0.000340301 0)
(0.106313 0.000348792 0)
(0.105607 0.000357191 0)
(0.104884 0.000365496 0)
(0.104145 0.000373705 0)
(0.103389 0.000381814 0)
(0.102617 0.000389823 0)
(0.10183 0.000397729 0)
(0.101026 0.000405531 0)
(0.100208 0.000413225 0)
(0.0993735 0.000420811 0)
(0.0985243 0.000428286 0)
(0.0976602 0.000435649 0)
(0.0967815 0.000442898 0)
(0.0958885 0.000450032 0)
(0.0949813 0.000457049 0)
(0.0940602 0.000463948 0)
(0.0931254 0.000470728 0)
(0.0921772 0.000477388 0)
(0.0912157 0.000483926 0)
(0.0902413 0.000490342 0)
(0.0892542 0.000496635 0)
(0.0882547 0.000502805 0)
(0.0872429 0.000508851 0)
(0.0862191 0.000514771 0)
(0.0851837 0.000520567 0)
(0.0841367 0.000526238 0)
(0.0830786 0.000531784 0)
(0.0820095 0.000537204 0)
(0.0809297 0.000542499 0)
(0.0798394 0.000547669 0)
(0.0787389 0.000552715 0)
(0.0776284 0.000557636 0)
(0.0765082 0.000562434 0)
(0.0753785 0.000567109 0)
(0.0742396 0.000571662 0)
(0.0730917 0.000576093 0)
(0.0719351 0.000580403 0)
(0.07077 0.000584594 0)
(0.0695966 0.000588667 0)
(0.0684152 0.000592622 0)
(0.067226 0.000596461 0)
(0.0660293 0.000600186 0)
(0.0648252 0.000603797 0)
(0.063614 0.000607296 0)
(0.0623959 0.000610684 0)
(0.0611711 0.000613964 0)
(0.0599399 0.000617137 0)
(0.0587025 0.000620204 0)
(0.057459 0.000623167 0)
(0.0562097 0.000626028 0)
(0.0549548 0.000628789 0)
(0.0536944 0.000631451 0)
(0.0524289 0.000634017 0)
(0.0511583 0.000636487 0)
(0.0498828 0.000638865 0)
(0.0486027 0.000641151 0)
(0.0473181 0.000643349 0)
(0.0460293 0.000645458 0)
(0.0447362 0.000647483 0)
(0.0434392 0.000649424 0)
(0.0421385 0.000651283 0)
(0.040834 0.000653062 0)
(0.0395261 0.000654763 0)
(0.0382149 0.000656388 0)
(0.0369005 0.000657939 0)
(0.0355831 0.000659417 0)
(0.0342628 0.000660824 0)
(0.0329397 0.000662161 0)
(0.0316141 0.000663432 0)
(0.0302859 0.000664636 0)
(0.0289554 0.000665776 0)
(0.0276228 0.000666853 0)
(0.026288 0.000667868 0)
(0.0249512 0.000668824 0)
(0.0236126 0.000669721 0)
(0.0222723 0.000670561 0)
(0.0209303 0.000671344 0)
(0.0195868 0.000672073 0)
(0.018242 0.000672748 0)
(0.0168958 0.00067337 0)
(0.0155484 0.000673941 0)
(0.0142 0.00067446 0)
(0.0128505 0.00067493 0)
(0.0115002 0.000675351 0)
(0.0101491 0.000675723 0)
(0.00879728 0.000676047 0)
(0.00744486 0.000676324 0)
(0.00609194 0.000676554 0)
(0.0047386 0.000676737 0)
(0.00338494 0.000676875 0)
(0.00203106 0.000676966 0)
(0.000677035 0.000677012 0)
(0.000677083 -0.00203109 0)
(0.0020312 -0.00203095 0)
(0.00338518 -0.00203068 0)
(0.00473894 -0.00203026 0)
(0.00609237 -0.00202971 0)
(0.0074454 -0.00202903 0)
(0.00879791 -0.0020282 0)
(0.0101498 -0.00202722 0)
(0.0115011 -0.00202611 0)
(0.0128515 -0.00202485 0)
(0.014201 -0.00202344 0)
(0.0155496 -0.00202188 0)
(0.0168971 -0.00202017 0)
(0.0182433 -0.0020183 0)
(0.0195883 -0.00201628 0)
(0.0209319 -0.00201409 0)
(0.022274 -0.00201174 0)
(0.0236144 -0.00200923 0)
(0.0249532 -0.00200654 0)
(0.02629 -0.00200367 0)
(0.0276249 -0.00200063 0)
(0.0289578 -0.0019974 0)
(0.0302884 -0.00199398 0)
(0.0316166 -0.00199037 0)
(0.0329424 -0.00198656 0)
(0.0342656 -0.00198255 0)
(0.0355861 -0.00197833 0)
(0.0369037 -0.0019739 0)
(0.0382182 -0.00196925 0)
(0.0395296 -0.00196437 0)
(0.0408376 -0.00195927 0)
(0.0421422 -0.00195393 0)
(0.0434432 -0.00194836 0)
(0.0447403 -0.00194254 0)
(0.0460335 -0.00193647 0)
(0.0473226 -0.00193014 0)
(0.0486074 -0.00192355 0)
(0.0498877 -0.00191669 0)
(0.0511633 -0.00190956 0)
(0.0524341 -0.00190215 0)
(0.0536999 -0.00189446 0)
(0.0549604 -0.00188647 0)
(0.0562155 -0.00187819 0)
(0.057465 -0.00186961 0)
(0.0587087 -0.00186072 0)
(0.0599464 -0.00185152 0)
(0.0611778 -0.00184201 0)
(0.0624028 -0.00183217 0)
(0.0636211 -0.001822 0)
(0.0648325 -0.00181151 0)
(0.0660368 -0.00180067 0)
(0.0672338 -0.0017895 0)
(0.0684232 -0.00177799 0)
(0.0696049 -0.00176612 0)
(0.0707785 -0.00175391 0)
(0.0719439 -0.00174133 0)
(0.0731007 -0.0017284 0)
(0.0742488 -0.00171511 0)
(0.075388 -0.00170145 0)
(0.0765179 -0.00168743 0)
(0.0776383 -0.00167304 0)
(0.0787491 -0.00165827 0)
(0.0798498 -0.00164314 0)
(0.0809404 -0.00162762 0)
(0.0820204 -0.00161174 0)
(0.0830898 -0.00159548 0)
(0.0841482 -0.00157884 0)
(0.0851954 -0.00156183 0)
(0.0862311 -0.00154444 0)
(0.0872551 -0.00152668 0)
(0.0882671 -0.00150854 0)
(0.0892669 -0.00149003 0)
(0.0902543 -0.00147115 0)
(0.0912289 -0.0014519 0)
(0.0921906 -0.00143228 0)
(0.0931391 -0.0014123 0)
(0.0940741 -0.00139196 0)
(0.0949955 -0.00137126 0)
(0.0959029 -0.00135021 0)
(0.0967962 -0.00132881 0)
(0.0976751 -0.00130706 0)
(0.0985393 -0.00128497 0)
(0.0993888 -0.00126254 0)
(0.100223 -0.00123978 0)
(0.101042 -0.0012167 0)
(0.101846 -0.00119329 0)
(0.102634 -0.00116957 0)
(0.103406 -0.00114554 0)
(0.104161 -0.00112121 0)
(0.104901 -0.00109658 0)
(0.105624 -0.00107166 0)
(0.10633 -0.00104646 0)
(0.107019 -0.00102099 0)
(0.107692 -0.000995244 0)
(0.108347 -0.000969239 0)
(0.108984 -0.00094298 0)
(0.109604 -0.000916476 0)
(0.110207 -0.000889732 0)
(0.110791 -0.000862758 0)
(0.111357 -0.000835561 0)
(0.111905 -0.000808148 0)
(0.112435 -0.000780528 0)
(0.112946 -0.000752708 0)
(0.113439 -0.000724697 0)
(0.113913 -0.000696502 0)
(0.114368 -0.000668131 0)
(0.114804 -0.000639592 0)
(0.115221 -0.000610894 0)
(0.115619 -0.000582043 0)
(0.115997 -0.000553048 0)
(0.116356 -0.000523916 0)
(0.116696 -0.000494656 0)
(0.117016 -0.000465275 0)
(0.117316 -0.000435781 0)
(0.117597 -0.000406181 0)
(0.117858 -0.000376483 0)
(0.118099 -0.000346694 0)
(0.11832 -0.000316822 0)
(0.118522 -0.000286875 0)
(0.118703 -0.000256859 0)
(0.118864 -0.000226782 0)
(0.119005 -0.000196652 0)
(0.119126 -0.000166475 0)
(0.119227 -0.000136259 0)
(0.119308 -0.000106011 0)
(0.119369 -7.57385e-05 0)
(0.119409 -4.54477e-05 0)
(0.119429 -1.51464e-05 0)
(0.119429 1.51586e-05 0)
(0.119409 4.54599e-05 0)
(0.119369 7.57505e-05 0)
(0.119308 0.000106023 0)
(0.119227 0.000136271 0)
(0.119126 0.000166487 0)
(0.119005 0.000196664 0)
(0.118864 0.000226794 0)
(0.118703 0.000256871 0)
(0.118521 0.000286886 0)
(0.11832 0.000316833 0)
(0.118099 0.000346705 0)
(0.117858 0.000376494 0)
(0.117597 0.000406192 0)
(0.117316 0.000435791 0)
(0.117016 0.000465286 0)
(0.116696 0.000494667 0)
(0.116356 0.000523927 0)
(0.115997 0.000553058 0)
(0.115618 0.000582053 0)
(0.115221 0.000610903 0)
(0.114804 0.000639602 0)
(0.114368 0.00066814 0)
(0.113913 0.000696511 0)
(0.113439 0.000724705 0)
(0.112946 0.000752717 0)
(0.112435 0.000780536 0)
(0.111905 0.000808156 0)
(0.111357 0.000835568 0)
(0.110791 0.000862765 0)
(0.110206 0.000889739 0)
(0.109604 0.000916482 0)
(0.108984 0.000942987 0)
(0.108347 0.000969245 0)
(0.107692 0.00099525 0)
(0.107019 0.00102099 0)
(0.10633 0.00104647 0)
(0.105624 0.00107167 0)
(0.104901 0.00109658 0)
(0.104161 0.00112121 0)
(0.103405 0.00114554 0)
(0.102633 0.00116957 0)
(0.101846 0.00119329 0)
(0.101042 0.0012167 0)
(0.100223 0.00123978 0)
(0.0993885 0.00126254 0)
(0.0985391 0.00128497 0)
(0.0976748 0.00130706 0)
(0.0967959 0.00132881 0)
(0.0959027 0.00135021 0)
(0.0949952 0.00137126 0)
(0.0940739 0.00139196 0)
(0.0931388 0.0014123 0)
(0.0921904 0.00143228 0)
(0.0912287 0.0014519 0)
(0.090254 0.00147115 0)
(0.0892667 0.00149003 0)
(0.0882669 0.00150854 0)
(0.0872548 0.00152668 0)
(0.0862309 0.00154444 0)
(0.0851951 0.00156183 0)
(0.084148 0.00157884 0)
(0.0830896 0.00159548 0)
(0.0820202 0.00161174 0)
(0.0809401 0.00162762 0)
(0.0798496 0.00164313 0)
(0.0787488 0.00165827 0)
(0.0776381 0.00167303 0)
(0.0765177 0.00168743 0)
(0.0753877 0.00170145 0)
(0.0742486 0.00171511 0)
(0.0731005 0.0017284 0)
(0.0719436 0.00174133 0)
(0.0707783 0.0017539 0)
(0.0696047 0.00176612 0)
(0.068423 0.00177798 0)
(0.0672336 0.0017895 0)
(0.0660366 0.00180067 0)
(0.0648323 0.0018115 0)
(0.0636209 0.001822 0)
(0.0624026 0.00183216 0)
(0.0611776 0.001842 0)
(0.0599462 0.00185152 0)
(0.0587085 0.00186072 0)
(0.0574648 0.0018696 0)
(0.0562153 0.00187819 0)
(0.0549602 0.00188647 0)
(0.0536997 0.00189445 0)
(0.0524339 0.00190214 0)
(0.0511631 0.00190955 0)
(0.0498875 0.00191669 0)
(0.0486072 0.00192354 0)
(0.0473225 0.00193013 0)
(0.0460334 0.00193646 0)
(0.0447402 0.00194253 0)
(0.043443 0.00194835 0)
(0.0421421 0.00195393 0)
(0.0408375 0.00195926 0)
(0.0395295 0.00196437 0)
(0.0382181 0.00196924 0)
(0.0369035 0.00197389 0)
(0.035586 0.00197832 0)
(0.0342655 0.00198254 0)
(0.0329423 0.00198655 0)
(0.0316165 0.00199036 0)
(0.0302883 0.00199397 0)
(0.0289577 0.00199739 0)
(0.0276248 0.00200062 0)
(0.0262899 0.00200366 0)
(0.0249531 0.00200653 0)
(0.0236144 0.00200922 0)
(0.0222739 0.00201174 0)
(0.0209318 0.00201409 0)
(0.0195882 0.00201627 0)
(0.0182433 0.0020183 0)
(0.016897 0.00202016 0)
(0.0155495 0.00202187 0)
(0.014201 0.00202343 0)
(0.0128514 0.00202484 0)
(0.011501 0.0020261 0)
(0.0101498 0.00202722 0)
(0.00879788 0.00202819 0)
(0.00744537 0.00202902 0)
(0.00609235 0.00202971 0)
(0.00473892 0.00203026 0)
(0.00338517 0.00203067 0)
(0.0020312 0.00203094 0)
(0.00067708 0.00203108 0)
(0.000677174 -0.0033853 0)
(0.00203148 -0.00338507 0)
(0.00338564 -0.00338461 0)
(0.00473958 -0.00338393 0)
(0.0060932 -0.00338301 0)
(0.00744641 -0.00338186 0)
(0.00879911 -0.00338048 0)
(0.0101512 -0.00337886 0)
(0.0115026 -0.00337701 0)
(0.0128533 -0.00337491 0)
(0.014203 -0.00337256 0)
(0.0155518 -0.00336997 0)
(0.0168994 -0.00336712 0)
(0.0182459 -0.00336401 0)
(0.0195911 -0.00336064 0)
(0.0209349 -0.00335701 0)
(0.0222772 -0.00335309 0)
(0.0236179 -0.0033489 0)
(0.0249569 -0.00334442 0)
(0.026294 -0.00333965 0)
(0.0276291 -0.00333458 0)
(0.0289622 -0.0033292 0)
(0.030293 -0.00332351 0)
(0.0316216 -0.0033175 0)
(0.0329476 -0.00331116 0)
(0.0342711 -0.00330448 0)
(0.0355918 -0.00329745 0)
(0.0369097 -0.00329007 0)
(0.0382246 -0.00328232 0)
(0.0395362 -0.00327421 0)
(0.0408446 -0.00326571 0)
(0.0421495 -0.00325682 0)
(0.0434508 -0.00324754 0)
(0.0447483 -0.00323784 0)
(0.0460418 -0.00322773 0)
(0.0473312 -0.00321719 0)
(0.0486163 -0.00320621 0)
(0.049897 -0.00319479 0)
(0.051173 -0.00318291 0)
(0.0524442 -0.00317057 0)
(0.0537103 -0.00315775 0)
(0.0549712 -0.00314445 0)
(0.0562268 -0.00313065 0)
(0.0574767 -0.00311636 0)
(0.0587208 -0.00310155 0)
(0.0599588 -0.00308622 0)
(0.0611907 -0.00307037 0)
(0.0624161 -0.00305397 0)
(0.0636348 -0.00303704 0)
(0.0648467 -0.00301955 0)
(0.0660515 -0.0030015 0)
(0.0672489 -0.00298289 0)
(0.0684388 -0.0029637 0)
(0.0696209 -0.00294393 0)
(0.070795 -0.00292357 0)
(0.0719609 -0.00290262 0)
(0.0731182 -0.00288107 0)
(0.0742668 -0.00285892 0)
(0.0754064 -0.00283616 0)
(0.0765368 -0.00281279 0)
(0.0776578 -0.00278881 0)
(0.078769 -0.0027642 0)
(0.0798703 -0.00273897 0)
(0.0809613 -0.00271312 0)
(0.0820419 -0.00268665 0)
(0.0831117 -0.00265955 0)
(0.0841706 -0.00263182 0)
(0.0852183 -0.00260347 0)
(0.0862545 -0.00257448 0)
(0.087279 -0.00254488 0)
(0.0882916 -0.00251465 0)
(0.0892919 -0.0024838 0)
(0.0902797 -0.00245233 0)
(0.0912548 -0.00242024 0)
(0.092217 -0.00238754 0)
(0.093166 -0.00235424 0)
(0.0941015 -0.00232033 0)
(0.0950233 -0.00228583 0)
(0.0959312 -0.00225074 0)
(0.096825 -0.00221506 0)
(0.0977043 -0.00217881 0)
(0.098569 -0.00214199 0)
(0.0994189 -0.0021046 0)
(0.100254 -0.00206666 0)
(0.101073 -0.00202818 0)
(0.101877 -0.00198917 0)
(0.102665 -0.00194963 0)
(0.103438 -0.00190957 0)
(0.104194 -0.00186901 0)
(0.104934 -0.00182796 0)
(0.105657 -0.00178642 0)
(0.106364 -0.00174441 0)
(0.107054 -0.00170194 0)
(0.107726 -0.00165903 0)
(0.108382 -0.00161568 0)
(0.10902 -0.00157191 0)
(0.10964 -0.00152772 0)
(0.110242 -0.00148314 0)
(0.110827 -0.00143818 0)
(0.111394 -0.00139284 0)
(0.111942 -0.00134714 0)
(0.112472 -0.0013011 0)
(0.112984 -0.00125473 0)
(0.113476 -0.00120803 0)
(0.11395 -0.00116103 0)
(0.114406 -0.00111374 0)
(0.114842 -0.00106617 0)
(0.115259 -0.00101833 0)
(0.115657 -0.000970232 0)
(0.116036 -0.000921898 0)
(0.116395 -0.000873337 0)
(0.116735 -0.000824562 0)
(0.117055 -0.000775585 0)
(0.117356 -0.000726419 0)
(0.117637 -0.000677077 0)
(0.117898 -0.000627572 0)
(0.118139 -0.000577915 0)
(0.11836 -0.000528121 0)
(0.118562 -0.0004782 0)
(0.118743 -0.000428166 0)
(0.118904 -0.00037803 0)
(0.119046 -0.000327805 0)
(0.119167 -0.000277502 0)
(0.119268 -0.000227135 0)
(0.119348 -0.000176713 0)
(0.119409 -0.00012625 0)
(0.11945 -7.5758e-05 0)
(0.11947 -2.52479e-05 0)
(0.11947 2.52682e-05 0)
(0.119449 7.57783e-05 0)
(0.119409 0.000126271 0)
(0.119348 0.000176733 0)
(0.119268 0.000227154 0)
(0.119167 0.000277522 0)
(0.119045 0.000327825 0)
(0.118904 0.00037805 0)
(0.118743 0.000428185 0)
(0.118561 0.00047822 0)
(0.11836 0.00052814 0)
(0.118139 0.000577934 0)
(0.117897 0.00062759 0)
(0.117636 0.000677095 0)
(0.117356 0.000726436 0)
(0.117055 0.000775602 0)
(0.116735 0.000824579 0)
(0.116395 0.000873354 0)
(0.116036 0.000921915 0)
(0.115657 0.000970248 0)
(0.115259 0.00101834 0)
(0.114842 0.00106618 0)
(0.114406 0.00111375 0)
(0.11395 0.00116105 0)
(0.113476 0.00120805 0)
(0.112983 0.00125474 0)
(0.112472 0.00130111 0)
(0.111942 0.00134716 0)
(0.111393 0.00139285 0)
(0.110827 0.00143819 0)
(0.110242 0.00148316 0)
(0.10964 0.00152774 0)
(0.109019 0.00157192 0)
(0.108381 0.00161569 0)
(0.107726 0.00165904 0)
(0.107053 0.00170195 0)
(0.106364 0.00174442 0)
(0.105657 0.00178643 0)
(0.104934 0.00182796 0)
(0.104194 0.00186902 0)
(0.103438 0.00190958 0)
(0.102665 0.00194963 0)
(0.101877 0.00198917 0)
(0.101073 0.00202819 0)
(0.100253 0.00206667 0)
(0.0994187 0.00210461 0)
(0.0985688 0.00214199 0)
(0.097704 0.00217881 0)
(0.0968247 0.00221507 0)
(0.095931 0.00225074 0)
(0.0950231 0.00228583 0)
(0.0941012 0.00232034 0)
(0.0931657 0.00235424 0)
(0.0922168 0.00238754 0)
(0.0912546 0.00242024 0)
(0.0902795 0.00245233 0)
(0.0892916 0.00248379 0)
(0.0882913 0.00251465 0)
(0.0872788 0.00254488 0)
(0.0862543 0.00257448 0)
(0.0852181 0.00260346 0)
(0.0841704 0.00263182 0)
(0.0831115 0.00265954 0)
(0.0820416 0.00268665 0)
(0.080961 0.00271312 0)
(0.07987 0.00273897 0)
(0.0787688 0.0027642 0)
(0.0776575 0.0027888 0)
(0.0765366 0.00281279 0)
(0.0754062 0.00283616 0)
(0.0742666 0.00285892 0)
(0.073118 0.00288107 0)
(0.0719606 0.00290261 0)
(0.0707948 0.00292356 0)
(0.0696207 0.00294392 0)
(0.0684386 0.00296369 0)
(0.0672487 0.00298288 0)
(0.0660513 0.00300149 0)
(0.0648465 0.00301954 0)
(0.0636346 0.00303703 0)
(0.0624159 0.00305397 0)
(0.0611905 0.00307036 0)
(0.0599586 0.00308621 0)
(0.0587206 0.00310154 0)
(0.0574765 0.00311635 0)
(0.0562266 0.00313064 0)
(0.054971 0.00314444 0)
(0.0537101 0.00315774 0)
(0.052444 0.00317056 0)
(0.0511728 0.0031829 0)
(0.0498968 0.00319478 0)
(0.0486162 0.0032062 0)
(0.0473311 0.00321718 0)
(0.0460416 0.00322772 0)
(0.0447481 0.00323783 0)
(0.0434506 0.00324753 0)
(0.0421494 0.00325681 0)
(0.0408445 0.0032657 0)
(0.0395361 0.0032742 0)
(0.0382244 0.00328231 0)
(0.0369096 0.00329006 0)
(0.0355917 0.00329744 0)
(0.034271 0.00330446 0)
(0.0329475 0.00331114 0)
(0.0316215 0.00331749 0)
(0.0302929 0.0033235 0)
(0.0289621 0.00332919 0)
(0.027629 0.00333457 0)
(0.0262939 0.00333964 0)
(0.0249568 0.00334441 0)
(0.0236178 0.00334889 0)
(0.0222771 0.00335308 0)
(0.0209348 0.00335699 0)
(0.0195911 0.00336063 0)
(0.0182459 0.003364 0)
(0.0168994 0.00336711 0)
(0.0155517 0.00336996 0)
(0.014203 0.00337255 0)
(0.0128532 0.0033749 0)
(0.0115026 0.003377 0)
(0.0101512 0.00337885 0)
(0.00879908 0.00338047 0)
(0.00744638 0.00338185 0)
(0.00609318 0.003383 0)
(0.00473956 0.00338392 0)
(0.00338563 0.0033846 0)
(0.00203147 0.00338506 0)
(0.000677171 0.00338529 0)
(0.00067731 -0.00473974 0)
(0.00203189 -0.00473942 0)
(0.00338633 -0.00473878 0)
(0.00474054 -0.00473782 0)
(0.00609444 -0.00473654 0)
(0.00744792 -0.00473494 0)
(0.00880091 -0.00473301 0)
(0.0101533 -0.00473075 0)
(0.011505 -0.00472815 0)
(0.0128559 -0.00472522 0)
(0.014206 -0.00472194 0)
(0.015555 -0.00471831 0)
(0.016903 -0.00471433 0)
(0.0182498 -0.00470999 0)
(0.0195953 -0.00470528 0)
(0.0209394 -0.00470019 0)
(0.0222821 -0.00469472 0)
(0.0236231 -0.00468886 0)
(0.0249624 -0.0046826 0)
(0.0262999 -0.00467593 0)
(0.0276354 -0.00466884 0)
(0.0289688 -0.00466133 0)
(0.0303001 -0.00465337 0)
(0.031629 -0.00464496 0)
(0.0329554 -0.00463609 0)
(0.0342793 -0.00462675 0)
(0.0356005 -0.00461692 0)
(0.0369188 -0.0046066 0)
(0.0382341 -0.00459577 0)
(0.0395462 -0.00458442 0)
(0.040855 -0.00457254 0)
(0.0421604 -0.00456011 0)
(0.0434622 -0.00454712 0)
(0.0447601 -0.00453356 0)
(0.0460542 -0.00451942 0)
(0.0473441 -0.00450468 0)
(0.0486298 -0.00448932 0)
(0.049911 -0.00447334 0)
(0.0511875 -0.00445673 0)
(0.0524593 -0.00443946 0)
(0.053726 -0.00442153 0)
(0.0549875 -0.00440292 0)
(0.0562436 -0.00438362 0)
(0.0574941 -0.00436361 0)
(0.0587388 -0.0043429 0)
(0.0599775 -0.00432145 0)
(0.06121 -0.00429926 0)
(0.0624361 -0.00427633 0)
(0.0636555 -0.00425263 0)
(0.064868 -0.00422815 0)
(0.0660735 -0.0042029 0)
(0.0672716 -0.00417685 0)
(0.0684622 -0.00414999 0)
(0.069645 -0.00412232 0)
(0.0708198 -0.00409383 0)
(0.0719864 -0.00406451 0)
(0.0731444 -0.00403435 0)
(0.0742938 -0.00400334 0)
(0.0754341 -0.00397148 0)
(0.0765653 -0.00393877 0)
(0.0776869 -0.00390519 0)
(0.0787989 -0.00387075 0)
(0.0799009 -0.00383544 0)
(0.0809927 -0.00379925 0)
(0.082074 -0.00376219 0)
(0.0831446 -0.00372424 0)
(0.0842043 -0.00368543 0)
(0.0852527 -0.00364573 0)
(0.0862897 -0.00360515 0)
(0.0873149 -0.0035637 0)
(0.0883282 -0.00352138 0)
(0.0893293 -0.00347818 0)
(0.0903179 -0.00343412 0)
(0.0912937 -0.00338919 0)
(0.0922566 -0.00334341 0)
(0.0932063 -0.00329678 0)
(0.0941425 -0.0032493 0)
(0.0950651 -0.00320099 0)
(0.0959737 -0.00315185 0)
(0.0968681 -0.0031019 0)
(0.0977482 -0.00305113 0)
(0.0986136 -0.00299957 0)
(0.0994641 -0.00294722 0)
(0.1003 -0.00289409 0)
(0.10112 -0.0028402 0)
(0.101924 -0.00278557 0)
(0.102713 -0.0027302 0)
(0.103486 -0.0026741 0)
(0.104243 -0.0026173 0)
(0.104984 -0.00255981 0)
(0.105707 -0.00250165 0)
(0.106415 -0.00244282 0)
(0.107105 -0.00238335 0)
(0.107778 -0.00232325 0)
(0.108434 -0.00226254 0)
(0.109072 -0.00220125 0)
(0.109693 -0.00213937 0)
(0.110296 -0.00207694 0)
(0.110881 -0.00201397 0)
(0.111448 -0.00195048 0)
(0.111997 -0.00188649 0)
(0.112527 -0.00182201 0)
(0.113039 -0.00175706 0)
(0.113533 -0.00169167 0)
(0.114007 -0.00162585 0)
(0.114463 -0.00155963 0)
(0.114899 -0.001493 0)
(0.115317 -0.00142601 0)
(0.115715 -0.00135866 0)
(0.116094 -0.00129098 0)
(0.116453 -0.00122297 0)
(0.116793 -0.00115467 0)
(0.117114 -0.00108608 0)
(0.117415 -0.00101723 0)
(0.117696 -0.000948136 0)
(0.117957 -0.000878811 0)
(0.118199 -0.000809275 0)
(0.11842 -0.000739546 0)
(0.118622 -0.00066964 0)
(0.118803 -0.000599575 0)
(0.118964 -0.000529368 0)
(0.119106 -0.000459035 0)
(0.119227 -0.000388595 0)
(0.119328 -0.000318063 0)
(0.119409 -0.000247457 0)
(0.11947 -0.000176792 0)
(0.11951 -0.000106086 0)
(0.11953 -3.53553e-05 0)
(0.11953 3.53837e-05 0)
(0.11951 0.000106114 0)
(0.11947 0.00017682 0)
(0.119409 0.000247485 0)
(0.119328 0.000318091 0)
(0.119227 0.000388623 0)
(0.119106 0.000459063 0)
(0.118964 0.000529395 0)
(0.118803 0.000599602 0)
(0.118621 0.000669667 0)
(0.11842 0.000739572 0)
(0.118198 0.000809302 0)
(0.117957 0.000878837 0)
(0.117696 0.000948162 0)
(0.117415 0.00101726 0)
(0.117114 0.00108611 0)
(0.116793 0.00115469 0)
(0.116453 0.001223 0)
(0.116094 0.001291 0)
(0.115715 0.00135868 0)
(0.115317 0.00142603 0)
(0.114899 0.00149303 0)
(0.114463 0.00155965 0)
(0.114007 0.00162588 0)
(0.113532 0.00169169 0)
(0.113039 0.00175708 0)
(0.112527 0.00182203 0)
(0.111997 0.0018865 0)
(0.111448 0.0019505 0)
(0.110881 0.00201399 0)
(0.110296 0.00207696 0)
(0.109693 0.00213939 0)
(0.109072 0.00220126 0)
(0.108434 0.00226256 0)
(0.107778 0.00232326 0)
(0.107105 0.00238336 0)
(0.106414 0.00244283 0)
(0.105707 0.00250166 0)
(0.104983 0.00255982 0)
(0.104243 0.00261731 0)
(0.103486 0.00267411 0)
(0.102713 0.0027302 0)
(0.101924 0.00278558 0)
(0.101119 0.00284021 0)
(0.100299 0.0028941 0)
(0.0994639 0.00294722 0)
(0.0986133 0.00299957 0)
(0.0977479 0.00305113 0)
(0.0968679 0.0031019 0)
(0.0959734 0.00315186 0)
(0.0950648 0.00320099 0)
(0.0941423 0.0032493 0)
(0.093206 0.00329678 0)
(0.0922564 0.00334341 0)
(0.0912935 0.00338919 0)
(0.0903176 0.00343412 0)
(0.089329 0.00347818 0)
(0.088328 0.00352137 0)
(0.0873147 0.0035637 0)
(0.0862894 0.00360515 0)
(0.0852525 0.00364572 0)
(0.084204 0.00368542 0)
(0.0831444 0.00372424 0)
(0.0820738 0.00376218 0)
(0.0809924 0.00379924 0)
(0.0799006 0.00383543 0)
(0.0787986 0.00387074 0)
(0.0776867 0.00390519 0)
(0.076565 0.00393876 0)
(0.0754339 0.00397148 0)
(0.0742935 0.00400333 0)
(0.0731442 0.00403434 0)
(0.0719861 0.0040645 0)
(0.0708196 0.00409382 0)
(0.0696448 0.00412231 0)
(0.068462 0.00414998 0)
(0.0672714 0.00417683 0)
(0.0660733 0.00420289 0)
(0.0648678 0.00422814 0)
(0.0636553 0.00425262 0)
(0.0624359 0.00427632 0)
(0.0612098 0.00429925 0)
(0.0599773 0.00432144 0)
(0.0587386 0.00434288 0)
(0.0574939 0.0043636 0)
(0.0562434 0.0043836 0)
(0.0549873 0.0044029 0)
(0.0537258 0.00442151 0)
(0.0524591 0.00443945 0)
(0.0511873 0.00445671 0)
(0.0499108 0.00447333 0)
(0.0486296 0.00448931 0)
(0.047344 0.00450466 0)
(0.046054 0.00451941 0)
(0.04476 0.00453355 0)
(0.043462 0.00454711 0)
(0.0421603 0.0045601 0)
(0.0408549 0.00457253 0)
(0.0395461 0.00458441 0)
(0.0382339 0.00459576 0)
(0.0369186 0.00460659 0)
(0.0356004 0.00461691 0)
(0.0342792 0.00462673 0)
(0.0329553 0.00463608 0)
(0.0316289 0.00464494 0)
(0.0303 0.00465335 0)
(0.0289687 0.00466131 0)
(0.0276353 0.00466883 0)
(0.0262998 0.00467592 0)
(0.0249623 0.00468259 0)
(0.023623 0.00468885 0)
(0.022282 0.00469471 0)
(0.0209394 0.00470018 0)
(0.0195953 0.00470526 0)
(0.0182497 0.00470997 0)
(0.0169029 0.00471431 0)
(0.015555 0.0047183 0)
(0.0142059 0.00472192 0)
(0.0128559 0.0047252 0)
(0.011505 0.00472813 0)
(0.0101533 0.00473073 0)
(0.00880088 0.00473299 0)
(0.0074479 0.00473492 0)
(0.00609441 0.00473653 0)
(0.00474052 0.00473781 0)
(0.00338631 0.00473876 0)
(0.00203188 0.0047394 0)
(0.000677308 0.00473972 0)
(0.000677492 -0.00609449 0)
(0.00203243 -0.00609409 0)
(0.00338724 -0.00609327 0)
(0.00474182 -0.00609204 0)
(0.00609608 -0.0060904 0)
(0.00744994 -0.00608834 0)
(0.0088033 -0.00608586 0)
(0.0101561 -0.00608296 0)
(0.0115082 -0.00607963 0)
(0.0128595 -0.00607587 0)
(0.0142099 -0.00607166 0)
(0.0155594 -0.00606701 0)
(0.0169078 -0.0060619 0)
(0.018255 -0.00605633 0)
(0.0196009 -0.00605029 0)
(0.0209455 -0.00604376 0)
(0.0222885 -0.00603675 0)
(0.02363 -0.00602923 0)
(0.0249698 -0.00602119 0)
(0.0263077 -0.00601263 0)
(0.0276437 -0.00600354 0)
(0.0289777 -0.00599389 0)
(0.0303094 -0.00598367 0)
(0.0316388 -0.00597288 0)
(0.0329658 -0.0059615 0)
(0.0342903 -0.00594951 0)
(0.035612 -0.0059369 0)
(0.0369308 -0.00592365 0)
(0.0382467 -0.00590975 0)
(0.0395595 -0.00589517 0)
(0.0408689 -0.00587992 0)
(0.0421749 -0.00586396 0)
(0.0434773 -0.00584728 0)
(0.044776 -0.00582987 0)
(0.0460707 -0.00581171 0)
(0.0473613 -0.00579278 0)
(0.0486477 -0.00577306 0)
(0.0499296 -0.00575254 0)
(0.0512069 -0.00573119 0)
(0.0524794 -0.00570901 0)
(0.0537468 -0.00568598 0)
(0.0550091 -0.00566208 0)
(0.056266 -0.00563728 0)
(0.0575174 -0.00561159 0)
(0.0587629 -0.00558497 0)
(0.0600025 -0.00555742 0)
(0.0612358 -0.00552891 0)
(0.0624627 -0.00549944 0)
(0.063683 -0.00546899 0)
(0.0648964 -0.00543754 0)
(0.0661028 -0.00540509 0)
(0.0673018 -0.00537161 0)
(0.0684934 -0.00533709 0)
(0.0696771 -0.00530153 0)
(0.0708528 -0.00526492 0)
(0.0720203 -0.00522723 0)
(0.0731794 -0.00518846 0)
(0.0743297 -0.00514861 0)
(0.075471 -0.00510766 0)
(0.0766031 -0.00506561 0)
(0.0777258 -0.00502245 0)
(0.0788388 -0.00497817 0)
(0.0799418 -0.00493277 0)
(0.0810345 -0.00488625 0)
(0.0821169 -0.0048386 0)
(0.0831885 -0.00478982 0)
(0.0842492 -0.00473991 0)
(0.0852986 -0.00468887 0)
(0.0863366 -0.0046367 0)
(0.0873628 -0.0045834 0)
(0.0883771 -0.00452898 0)
(0.0893791 -0.00447343 0)
(0.0903687 -0.00441677 0)
(0.0913456 -0.004359 0)
(0.0923094 -0.00430013 0)
(0.0932601 -0.00424016 0)
(0.0941973 -0.00417911 0)
(0.0951208 -0.00411698 0)
(0.0960303 -0.00405378 0)
(0.0969257 -0.00398954 0)
(0.0978066 -0.00392425 0)
(0.098673 -0.00385793 0)
(0.0995244 -0.00379061 0)
(0.100361 -0.00372228 0)
(0.101182 -0.00365298 0)
(0.101987 -0.00358271 0)
(0.102777 -0.00351149 0)
(0.103551 -0.00343934 0)
(0.104308 -0.00336629 0)
(0.10505 -0.00329235 0)
(0.105774 -0.00321753 0)
(0.106482 -0.00314187 0)
(0.107173 -0.00306538 0)
(0.107847 -0.00298808 0)
(0.108504 -0.00291 0)
(0.109143 -0.00283116 0)
(0.109764 -0.00275157 0)
(0.110368 -0.00267128 0)
(0.110954 -0.00259028 0)
(0.111521 -0.00250862 0)
(0.112071 -0.00242631 0)
(0.112601 -0.00234338 0)
(0.113114 -0.00225985 0)
(0.113608 -0.00217574 0)
(0.114083 -0.00209109 0)
(0.114539 -0.0020059 0)
(0.114976 -0.00192022 0)
(0.115394 -0.00183405 0)
(0.115792 -0.00174743 0)
(0.116171 -0.00166037 0)
(0.116531 -0.00157291 0)
(0.116872 -0.00148506 0)
(0.117193 -0.00139684 0)
(0.117494 -0.00130829 0)
(0.117775 -0.00121942 0)
(0.118036 -0.00113026 0)
(0.118278 -0.00104083 0)
(0.1185 -0.000951147 0)
(0.118702 -0.000861238 0)
(0.118883 -0.000771125 0)
(0.119045 -0.00068083 0)
(0.119186 -0.000590374 0)