/*--------------------------------*- C++ -*----------------------------------*\
| =========                 |                                                 |
| \\      /  F ield         | OpenFOAM: The Open Source CFD Toolbox           |
|  \\    /   O peration     | Version:  2212                                  |
|   \\  /    A nd           | Website:  www.openfoam.com                      |
|    \\/     M anipulation  |                                                 |
\*---------------------------------------------------------------------------*/
FoamFile
{
    version     2.0;
    format      ascii;
    arch        "LSB;label=32;scalar=64";
    class       volVectorField;
    location    "0";
    object      vorticity;
}
// * * * * * * * * * * * * * * * * * * * * * * * * * * * * * * * * * * * * * //

dimensions      [0 0 -1 0 0 0 0];

internalField   nonuniform List<vector> 
65536
(
(0 -0 -1.05566e-17)
(0 -0 1.42675e-07)
(0 -0 1.63057e-07)
(0 -0 2.03822e-08)
(0 -0 8.15287e-08)
(0 -0 -6.11465e-08)
(0 -0 2.03822e-08)
(0 -0 -8.15287e-08)
(0 -0 -1.42675e-07)
(0 -0 -2.03822e-07)
(0 -0 -2.24204e-07)
(0 -0 -1.83439e-07)
(0 -0 -1.42675e-07)
(0 -0 -6.11465e-08)
(0 -0 8.15287e-08)
(0 -0 2.44586e-07)
(0 -0 4.6879e-07)
(0 -0 7.5414e-07)
(0 -0 -9.78344e-07)
(0 -0 1.44713e-06)
(0 -0 -1.42675e-07)
(0 -0 -1.69172e-06)
(0 -0 -1.1414e-06)
(0 -0 1.50828e-06)
(0 -0 1.63057e-07)
(0 -0 9.17197e-07)
(0 -0 -3.05732e-07)
(0 -0 -1.44713e-06)
(0 -0 -4.89172e-07)
(0 -0 5.29936e-07)
(0 -0 1.63057e-06)
(0 -0 7.74522e-07)
(0 -0 4.92634e-17)
(0 -0 1.32484e-06)
(0 -0 6.92994e-07)
(0 -0 1.63057e-07)
(0 -0 -3.26115e-07)
(0 -0 -7.33758e-07)
(0 -0 9.78344e-07)
(0 -0 7.33758e-07)
(0 -0 -1.46752e-06)
(0 -0 4.6879e-07)
(0 -0 4.48408e-07)
(0 -0 4.89172e-07)
(0 -0 6.11465e-07)
(0 -0 -1.22293e-06)
(0 -0 -9.57962e-07)
(0 -0 -6.31847e-07)
(0 -0 -2.44586e-07)
(0 -0 2.03822e-07)
(0 -0 7.13376e-07)
(0 -0 1.30446e-06)
(0 -0 1.93631e-06)
(0 -0 5.50318e-07)
(0 -0 -7.5414e-07)
(0 -0 4.07643e-08)
(0 -0 8.56051e-07)
(0 -0 1.7121e-06)
(0 -0 5.70701e-07)
(0 -0 -5.50318e-07)
(0 -0 3.87261e-07)
(0 -0 -6.72611e-07)
(0 -0 3.26115e-07)
(0 -0 -7.13376e-07)
(0 -0 3.26115e-07)
(0 -0 -6.92994e-07)
(0 -0 3.26115e-07)
(0 -0 -6.72611e-07)
(0 -0 3.46497e-07)
(0 -0 -6.72611e-07)
(0 -0 3.05732e-07)
(0 -0 1.28408e-06)
(0 -0 2.03822e-07)
(0 -0 1.12102e-06)
(0 -0 -4.07643e-08)
(0 -0 -1.24331e-06)
(0 -0 -4.07643e-07)
(0 -0 3.46497e-07)
(0 -0 1.03949e-06)
(0 -0 -3.46497e-07)
(0 -0 2.44586e-07)
(0 -0 7.74522e-07)
(0 -0 -7.94904e-07)
(0 -0 5.70701e-06)
(0 -0 1.01096e-05)
(0 -0 -5.95159e-06)
(0 -0 -1.73248e-06)
(0 -0 -1.79567e-05)
(0 -0 6.48153e-06)
(0 -0 -9.92611e-06)
(0 -0 -6.01274e-06)
(0 -0 -2.22166e-06)
(0 -0 1.44713e-06)
(0 -0 5.03439e-06)
(0 -0 -1.18217e-05)
(0 -0 1.19643e-05)
(0 -0 1.52255e-05)
(0 -0 -1.95669e-06)
(0 -0 1.1414e-06)
(0 -0 4.09682e-06)
(0 -0 6.9707e-06)
(0 -0 9.76306e-06)
(0 -0 1.24127e-05)
(0 -0 -5.44204e-06)
(0 -0 -2.99618e-06)
(0 -0 -6.52229e-07)
(0 -0 1.58981e-06)
(0 -0 3.70955e-06)
(0 -0 -1.46752e-05)
(0 -0 7.60255e-06)
(0 -0 9.41656e-06)
(0 -0 -9.2535e-06)
(0 -0 -7.68408e-06)
(0 -0 1.4186e-05)
(0 -0 -4.78981e-06)
(0 -0 -3.50573e-06)
(0 -0 -2.34395e-06)
(0 -0 -1.26981e-06)
(0 -0 -2.83312e-07)
(0 -0 5.95159e-07)
(0 -0 1.37376e-06)
(0 -0 2.05248e-06)
(0 -0 2.63541e-06)
(0 -0 3.11847e-06)
(0 -0 3.50573e-06)
(0 -0 3.7972e-06)
(0 -0 3.99083e-06)
(0 -0 4.08785e-06)
(0 -0 4.08662e-06)
(0 -0 3.98961e-06)
(0 -0 -1.6585e-05)
(0 -0 3.50573e-06)
(0 -0 3.11847e-06)
(0 -0 2.63338e-06)
(0 -0 2.05045e-06)
(0 -0 1.37172e-06)
(0 -0 5.93121e-07)
(0 -0 2.01029e-05)
(0 -0 -1.26573e-06)
(0 -0 -2.34395e-06)
(0 -0 -3.52611e-06)
(0 -0 -4.81019e-06)
(0 -0 -6.1758e-06)
(0 -0 -7.68408e-06)
(0 -0 -9.27389e-06)
(0 -0 9.41656e-06)
(0 -0 -1.27592e-05)
(0 -0 5.72739e-06)
(0 -0 -1.6693e-05)
(0 -0 1.56943e-06)
(0 -0 -6.52229e-07)
(0 -0 -2.99618e-06)
(0 -0 -5.44204e-06)
(0 -0 1.23924e-05)
(0 -0 -1.06395e-05)
(0 -0 6.99108e-06)
(0 -0 4.1172e-06)
(0 -0 1.12102e-06)
(0 -0 1.84255e-05)
(0 -0 -5.13631e-06)
(0 -0 1.19236e-05)
(0 -0 -1.1842e-05)
(0 -0 -1.53274e-05)
(0 -0 1.44713e-06)
(0 -0 -2.24204e-06)
(0 -0 -6.03312e-06)
(0 -0 -9.90573e-06)
(0 -0 6.48153e-06)
(0 -0 2.4051e-06)
(0 -0 -1.73248e-06)
(0 -0 -5.95159e-06)
(0 -0 -1.02726e-05)
(0 -0 5.70701e-06)
(0 -0 1.24331e-06)
(0 -0 7.74522e-07)
(0 -0 2.44586e-07)
(0 -0 -3.46497e-07)
(0 -0 -9.98726e-07)
(0 -0 3.26115e-07)
(0 -0 -4.28025e-07)
(0 -0 8.15287e-07)
(0 -0 -4.07643e-08)
(0 -0 -9.3758e-07)
(0 -0 1.83439e-07)
(0 -0 -7.5414e-07)
(0 -0 3.26115e-07)
(0 -0 1.34522e-06)
(0 -0 -1.7121e-06)
(0 -0 1.36561e-06)
(0 -0 -1.69172e-06)
(0 -0 -6.92994e-07)
(0 -0 3.05732e-07)
(0 -0 1.32484e-06)
(0 -0 3.26115e-07)
(0 -0 1.36561e-06)
(0 -0 3.87261e-07)
(0 -0 -5.50318e-07)
(0 -0 5.70701e-07)
(0 -0 -3.26115e-07)
(0 -0 -1.20255e-06)
(0 -0 2.03822e-08)
(0 -0 -7.33758e-07)
(0 -0 -1.46752e-06)
(0 -0 -1.22293e-07)
(0 -0 -7.33758e-07)
(0 -0 7.33758e-07)
(0 -0 2.03822e-07)
(0 -0 -2.64968e-07)
(0 -0 -6.52229e-07)
(0 -0 -9.57962e-07)
(0 -0 -1.22293e-06)
(0 -0 6.11465e-07)
(0 -0 4.89172e-07)
(0 -0 4.48408e-07)
(0 -0 4.6879e-07)
(0 -0 -1.46752e-06)
(0 -0 7.33758e-07)
(0 -0 9.78344e-07)
(0 -0 -7.33758e-07)
(0 -0 -3.26115e-07)
(0 -0 -1.89554e-06)
(0 -0 6.92994e-07)
(0 -0 -6.92994e-07)
(0 -0 2.74479e-16)
(0 -0 7.74522e-07)
(0 -0 -4.07643e-07)
(0 -0 -1.50828e-06)
(0 -0 -4.89172e-07)
(0 -0 5.91083e-07)
(0 -0 -3.05732e-07)
(0 -0 8.96815e-07)
(0 -0 1.63057e-07)
(0 -0 1.52866e-06)
(0 -0 -1.1414e-06)
(0 -0 -1.69172e-06)
(0 -0 1.87516e-06)
(0 -0 1.44713e-06)
(0 -0 -9.57962e-07)
(0 -0 -1.28408e-06)
(0 -0 4.6879e-07)
(0 -0 2.44586e-07)
(0 -0 8.15287e-08)
(0 -0 -6.11465e-08)
(0 -0 -1.42675e-07)
(0 -0 -2.03822e-07)
(0 -0 -2.24204e-07)
(0 -0 -1.83439e-07)
(0 -0 -1.42675e-07)
(0 -0 -8.15287e-08)
(0 -0 2.03822e-08)
(0 -0 -6.11465e-08)
(0 -0 6.11465e-08)
(0 -0 2.03822e-08)
(0 -0 -2.03822e-08)
(0 -0 -6.11465e-08)
(0 -0 2.03822e-08)
(0 -0 6.11465e-08)
(0 -0 0)
(0 -0 2.03822e-07)
(0 -0 2.03822e-07)
(0 -0 -2.03822e-07)
(0 -0 -2.03822e-07)
(0 -0 2.03822e-07)
(0 -0 -2.03822e-07)
(0 -0 1.42675e-06)
(0 -0 -6.11465e-07)
(0 -0 -6.11465e-07)
(0 -0 -6.11465e-07)
(0 -0 1.63057e-06)
(0 -0 -2.03822e-07)
(0 -0 2.03822e-07)
(0 -0 8.15287e-07)
(0 -0 1.22293e-06)
(0 -0 -9.85269e-17)
(0 -0 -8.15287e-07)
(0 -0 2.03822e-07)
(0 -0 -6.11465e-07)
(0 -0 -1.01911e-06)
(0 -0 6.11465e-07)
(0 -0 4.07643e-07)
(0 -0 4.07643e-07)
(0 -0 6.11465e-07)
(0 -0 1.01911e-06)
(0 -0 -4.07643e-07)
(0 -0 -1.42675e-06)
(0 -0 1.63057e-06)
(0 -0 8.15287e-07)
(0 -0 2.03822e-07)
(0 -0 -2.03822e-07)
(0 -0 -2.03822e-07)
(0 -0 7.03647e-17)
(0 -0 4.07643e-07)
(0 -0 1.01911e-06)
(0 -0 -2.03822e-07)
(0 -0 8.15287e-07)
(0 -0 -7.04189e-17)
(0 -0 -4.07643e-07)
(0 -0 1.42675e-06)
(0 -0 -8.15287e-07)
(0 -0 -6.11465e-07)
(0 -0 -2.03822e-07)
(0 -0 2.03822e-07)
(0 -0 -1.01911e-06)
(0 -0 2.03822e-07)
(0 -0 1.22293e-06)
(0 -0 6.11465e-07)
(0 -0 2.03822e-07)
(0 -0 1.63057e-06)
(0 -0 1.63057e-06)
(0 -0 1.63057e-06)
(0 -0 -2.03822e-07)
(0 -0 2.03822e-07)
(0 -0 4.07643e-07)
(0 -0 1.01911e-06)
(0 -0 1.63057e-06)
(0 -0 2.03822e-07)
(0 -0 -8.15287e-07)
(0 -0 0)
(0 -0 -1.01911e-06)
(0 -0 -1.40729e-16)
(0 -0 -1.22293e-06)
(0 -0 -2.53378e-16)
(0 -0 1.01911e-06)
(0 -0 8.44593e-17)
(0 -0 1.01911e-06)
(0 -0 4.15249e-16)
(0 -0 -1.01911e-06)
(0 -0 -2.03822e-07)
(0 -0 6.11465e-07)
(0 -0 1.42675e-06)
(0 -0 1.82905e-16)
(0 -0 -1.63057e-06)
(0 -0 -1.22293e-06)
(0 -0 1.01911e-06)
(0 -0 1.01911e-06)
(0 -0 -1.01911e-06)
(0 -0 8.15287e-07)
(0 -0 4.07643e-07)
(0 -0 -2.03822e-07)
(0 -0 -3.26115e-06)
(0 -0 9.98726e-06)
(0 -0 2.64968e-06)
(0 -0 1.52866e-05)
(0 -0 -1.30446e-05)
(0 -0 -8.15287e-07)
(0 -0 -9.17197e-06)
(0 -0 2.44586e-06)
(0 -0 -6.72611e-06)
(0 -0 -1.59796e-05)
(0 -0 1.5307e-05)
(0 -0 -1.50013e-05)
(0 -0 -4.83057e-06)
(0 -0 5.05478e-06)
(0 -0 1.46344e-05)
(0 -0 3.48535e-06)
(0 -0 -7.94904e-06)
(0 -0 6.72611e-07)
(0 -0 8.96815e-06)
(0 -0 -3.44459e-06)
(0 -0 4.19873e-06)
(0 -0 1.15363e-05)
(0 -0 -1.83439e-06)
(0 -0 4.83057e-06)
(0 -0 1.11898e-05)
(0 -0 -3.13885e-06)
(0 -0 2.58854e-06)
(0 -0 7.98981e-06)
(0 -0 -7.3172e-06)
(0 -0 -2.54777e-06)
(0 -0 1.91592e-06)
(0 -0 -1.43083e-05)
(0 -0 -1.04561e-05)
(0 -0 -6.90955e-06)
(0 -0 -3.68917e-06)
(0 -0 -7.5414e-07)
(0 -0 1.89554e-06)
(0 -0 4.21911e-06)
(0 -0 -1.41248e-05)
(0 -0 -1.2372e-05)
(0 -0 -1.09248e-05)
(0 -0 1.06089e-05)
(0 -0 1.14813e-05)
(0 -0 -8.31389e-06)
(0 -0 -8.02446e-06)
(0 -0 -8.02446e-06)
(0 -0 1.20642e-05)
(0 -0 -8.90497e-06)
(0 -0 1.06089e-05)
(0 -0 -1.09248e-05)
(0 -0 -1.2372e-05)
(0 -0 6.25732e-06)
(0 -0 4.21911e-06)
(0 -0 1.87516e-06)
(0 -0 1.96076e-05)
(0 -0 -3.68917e-06)
(0 -0 -6.90955e-06)
(0 -0 9.92611e-06)
(0 -0 6.0535e-06)
(0 -0 -1.84662e-05)
(0 -0 -2.52739e-06)
(0 -0 -7.3172e-06)
(0 -0 7.96943e-06)
(0 -0 -1.7814e-05)
(0 -0 -3.15924e-06)
(0 -0 -9.19236e-06)
(0 -0 4.83057e-06)
(0 -0 -1.85478e-06)
(0 -0 1.15159e-05)
(0 -0 4.19873e-06)
(0 -0 1.69376e-05)
(0 -0 -1.14344e-05)
(0 -0 6.52229e-07)
(0 -0 1.24127e-05)
(0 -0 3.48535e-06)
(0 -0 1.4614e-05)
(0 -0 -1.53274e-05)
(0 -0 1.55516e-05)
(0 -0 5.36051e-06)
(0 -0 -5.19745e-06)
(0 -0 4.48408e-06)
(0 -0 -6.52229e-06)
(0 -0 2.24204e-06)
(0 -0 -9.3758e-06)
(0 -0 -8.15287e-07)
(0 -0 -1.30446e-05)
(0 -0 -5.09554e-06)
(0 -0 2.64968e-06)
(0 -0 -1.03949e-05)
(0 -0 1.7121e-05)
(0 -0 -2.03822e-07)
(0 -0 4.07643e-07)
(0 -0 8.15287e-07)
(0 -0 -1.01911e-06)
(0 -0 -1.01911e-06)
(0 -0 -1.01911e-06)
(0 -0 8.15287e-07)
(0 -0 4.07643e-07)
(0 -0 -7.31945e-16)
(0 -0 -6.11465e-07)
(0 -0 -1.42675e-06)
(0 -0 -2.03822e-07)
(0 -0 1.01911e-06)
(0 -0 -5.06648e-16)
(0 -0 -1.01911e-06)
(0 -0 4.99709e-16)
(0 -0 -1.01911e-06)
(0 -0 -7.03756e-16)
(0 -0 8.15287e-07)
(0 -0 1.83439e-06)
(0 -0 1.01911e-06)
(0 -0 -9.29053e-16)
(0 -0 1.22293e-06)
(0 -0 4.07643e-07)
(0 -0 -4.07643e-07)
(0 -0 -1.01911e-06)
(0 -0 -1.63057e-06)
(0 -0 6.33391e-16)
(0 -0 -2.03822e-07)
(0 -0 -4.07643e-07)
(0 -0 -4.07643e-07)
(0 -0 -2.03822e-07)
(0 -0 -1.40404e-17)
(0 -0 6.11465e-07)
(0 -0 1.22293e-06)
(0 -0 -7.1785e-16)
(0 -0 -8.15287e-07)
(0 -0 4.07643e-07)
(0 -0 -4.07643e-07)
(0 -0 -6.11465e-07)
(0 -0 -6.11465e-07)
(0 -0 1.22293e-06)
(0 -0 -6.11465e-07)
(0 -0 -5.62701e-17)
(0 -0 1.01911e-06)
(0 -0 -2.03822e-07)
(0 -0 -1.22293e-06)
(0 -0 -1.63057e-06)
(0 -0 2.03822e-06)
(0 -0 -2.03822e-07)
(0 -0 -8.44593e-17)
(0 -0 2.03822e-07)
(0 -0 -1.22293e-06)
(0 -0 -4.07643e-07)
(0 -0 4.07643e-07)
(0 -0 -4.07643e-07)
(0 -0 1.01911e-06)
(0 -0 6.11465e-07)
(0 -0 4.07643e-07)
(0 -0 4.07643e-07)
(0 -0 6.11465e-07)
(0 -0 -1.01911e-06)
(0 -0 1.42675e-06)
(0 -0 2.03822e-07)
(0 -0 -8.15287e-07)
(0 -0 2.03822e-07)
(0 -0 1.42675e-06)
(0 -0 6.11465e-07)
(0 -0 -1.83439e-06)
(0 -0 -2.03822e-07)
(0 -0 -6.11465e-07)
(0 -0 -6.11465e-07)
(0 -0 -6.11465e-07)
(0 -0 -6.11465e-07)
(0 -0 -4.07643e-07)
(0 -0 -2.03822e-07)
(0 -0 -5.6304e-17)
(0 -0 4.22229e-17)
(0 -0 -1.40777e-17)
(0 -0 -2.8152e-17)
(0 -0 -2.03822e-07)
(0 -0 0)
(0 -0 8.15287e-08)
(0 -0 6.11465e-08)
(0 -0 -4.22263e-17)
(0 -0 -2.03822e-07)
(0 -0 2.81486e-17)
(0 -0 -2.81486e-17)
(0 -0 2.03822e-07)
(0 -0 -2.81486e-17)
(0 -0 -6.11465e-07)
(0 -0 1.01911e-06)
(0 -0 1.01911e-06)
(0 -0 -1.22293e-06)
(0 -0 8.15287e-07)
(0 -0 1.22293e-06)
(0 -0 -4.07643e-07)
(0 -0 1.12622e-16)
(0 -0 1.01911e-06)
(0 -0 2.03822e-07)
(0 -0 -6.11465e-07)
(0 -0 1.01911e-06)
(0 -0 -1.22293e-06)
(0 -0 -1.01911e-06)
(0 -0 1.42675e-06)
(0 -0 5.62972e-17)
(0 -0 -1.01911e-06)
(0 -0 4.07643e-07)
(0 -0 2.03822e-07)
(0 -0 2.03822e-07)
(0 -0 6.11465e-07)
(0 -0 -8.15287e-07)
(0 -0 2.03822e-07)
(0 -0 -2.03822e-07)
(0 -0 -6.11465e-07)
(0 -0 -4.07643e-07)
(0 -0 2.03822e-07)
(0 -0 -1.01911e-06)
(0 -0 4.07643e-07)
(0 -0 -8.44593e-17)
(0 -0 2.81513e-16)
(0 -0 4.07643e-07)
(0 -0 -8.15287e-07)
(0 -0 4.07643e-07)
(0 -0 -6.19296e-16)
(0 -0 -2.03822e-07)
(0 -0 5.91215e-16)
(0 -0 8.15287e-07)
(0 -0 1.63057e-06)
(0 -0 1.01911e-06)
(0 -0 6.11465e-07)
(0 -0 4.07643e-07)
(0 -0 8.15287e-07)
(0 -0 -8.15287e-07)
(0 -0 -2.81893e-17)
(0 -0 -8.15287e-07)
(0 -0 6.11465e-07)
(0 -0 2.03822e-07)
(0 -0 -2.95554e-16)
(0 -0 9.8554e-17)
(0 -0 -1.83439e-06)
(0 -0 6.11465e-07)
(0 -0 -1.01911e-06)
(0 -0 -2.03822e-07)
(0 -0 8.15287e-07)
(0 -0 -4.07643e-07)
(0 -0 4.07643e-07)
(0 -0 -6.11465e-07)
(0 -0 6.11465e-07)
(0 -0 -4.07643e-07)
(0 -0 8.15287e-07)
(0 -0 -2.03822e-07)
(0 -0 6.11465e-07)
(0 -0 -4.07643e-07)
(0 -0 -1.63057e-06)
(0 -0 -8.15287e-07)
(0 -0 -2.03822e-07)
(0 -0 1.40946e-17)
(0 -0 2.03822e-07)
(0 -0 2.03822e-07)
(0 -0 -2.03822e-07)
(0 -0 -6.11465e-07)
(0 -0 6.11465e-07)
(0 -0 -6.11465e-07)
(0 -0 -1.83439e-06)
(0 -0 6.11465e-07)
(0 -0 -1.18217e-05)
(0 -0 -1.03949e-05)
(0 -0 1.12102e-05)
(0 -0 1.22293e-05)
(0 -0 1.26369e-05)
(0 -0 -7.94904e-06)
(0 -0 -8.35669e-06)
(0 -0 1.12102e-05)
(0 -0 -1.05987e-05)
(0 -0 -1.26369e-05)
(0 -0 5.29936e-06)
(0 -0 2.44586e-06)
(0 -0 -8.15287e-07)
(0 -0 -4.6879e-06)
(0 -0 1.10064e-05)
(0 -0 6.11465e-06)
(0 -0 8.15287e-07)
(0 -0 -5.29936e-06)
(0 -0 8.35669e-06)
(0 -0 1.42675e-06)
(0 -0 -6.11465e-06)
(0 -0 5.91083e-06)
(0 -0 -2.8535e-06)
(0 -0 8.35669e-06)
(0 -0 -1.26369e-06)
(0 -0 8.8051e-06)
(0 -0 -2.14013e-06)
(0 -0 6.84841e-06)
(0 -0 1.53274e-05)
(0 -0 2.91465e-06)
(0 -0 -1.0028e-05)
(0 -0 -3.11847e-06)
(0 -0 3.30191e-06)
(0 -0 -1.11898e-05)
(0 -0 -5.80892e-06)
(0 -0 -9.17197e-07)
(0 -0 3.46497e-06)
(0 -0 7.35796e-06)
(0 -0 -9.62038e-06)
(0 -0 -6.72611e-06)
(0 -0 -4.30064e-06)
(0 -0 -2.34395e-06)
(0 -0 -9.17197e-07)
(0 -0 4.28025e-08)
(0 -0 5.34013e-07)
(0 -0 5.34013e-07)
(0 -0 5.70701e-08)
(0 -0 -9.23312e-07)
(0 -0 -2.38471e-06)
(0 -0 -4.30064e-06)
(0 -0 -6.70573e-06)
(0 -0 -9.62038e-06)
(0 -0 7.33758e-06)
(0 -0 3.46497e-06)
(0 -0 -9.17197e-07)
(0 -0 -5.8293e-06)
(0 -0 9.17197e-06)
(0 -0 3.28153e-06)
(0 -0 -3.13885e-06)
(0 -0 -1.00484e-05)
(0 -0 2.91465e-06)
(0 -0 1.53274e-05)
(0 -0 6.84841e-06)
(0 -0 -2.16051e-06)
(0 -0 -1.17197e-05)
(0 -0 -1.38599e-06)
(0 -0 8.35669e-06)
(0 -0 -2.64968e-06)
(0 -0 6.11465e-06)
(0 -0 1.40637e-05)
(0 -0 1.22293e-06)
(0 -0 8.56051e-06)
(0 -0 -5.29936e-06)
(0 -0 6.11465e-07)
(0 -0 6.31847e-06)
(0 -0 -9.17197e-06)
(0 -0 -4.89172e-06)
(0 -0 -1.01911e-06)
(0 -0 2.44586e-06)
(0 -0 5.29936e-06)
(0 -0 -1.26369e-05)
(0 -0 9.78344e-06)
(0 -0 1.10064e-05)
(0 -0 1.20255e-05)
(0 -0 -7.74522e-06)
(0 -0 -7.94904e-06)
(0 -0 -8.35669e-06)
(0 -0 1.1414e-05)
(0 -0 1.01911e-05)
(0 -0 8.56051e-06)
(0 -0 -1.63057e-06)
(0 -0 3.66027e-16)
(0 -0 -4.07643e-07)
(0 -0 -1.42675e-06)
(0 -0 1.22293e-06)
(0 -0 -4.08311e-16)
(0 -0 2.03822e-07)
(0 -0 3.94216e-16)
(0 -0 5.34945e-16)
(0 -0 -2.03822e-07)
(0 -0 -1.01911e-06)
(0 -0 4.07643e-07)
(0 -0 -2.03822e-07)
(0 -0 -1.42675e-06)
(0 -0 1.63057e-06)
(0 -0 -1.22293e-06)
(0 -0 1.63057e-06)
(0 -0 6.11465e-07)
(0 -0 -4.07643e-07)
(0 -0 4.07643e-07)
(0 -0 1.63057e-06)
(0 -0 6.11465e-07)
(0 -0 -2.03822e-07)
(0 -0 1.22293e-06)
(0 -0 -1.42675e-06)
(0 -0 2.03822e-07)
(0 -0 -2.03822e-07)
(0 -0 -2.03822e-07)
(0 -0 2.03822e-07)
(0 -0 6.11465e-07)
(0 -0 -8.15287e-07)
(0 -0 -2.81893e-17)
(0 -0 -8.15287e-07)
(0 -0 8.15287e-07)
(0 -0 6.11465e-07)
(0 -0 6.11465e-07)
(0 -0 8.15287e-07)
(0 -0 1.63057e-06)
(0 -0 8.15287e-07)
(0 -0 -3.09648e-16)
(0 -0 -2.03822e-07)
(0 -0 3.09648e-16)
(0 -0 4.07643e-07)
(0 -0 -8.15287e-07)
(0 -0 4.07643e-07)
(0 -0 -1.97054e-16)
(0 -0 1.40729e-16)
(0 -0 4.07643e-07)
(0 -0 1.01911e-06)
(0 -0 2.03822e-07)
(0 -0 -4.07643e-07)
(0 -0 -6.11465e-07)
(0 -0 -2.03822e-07)
(0 -0 2.03822e-07)
(0 -0 1.22293e-06)
(0 -0 6.11465e-07)
(0 -0 -5.63243e-17)
(0 -0 -1.40729e-16)
(0 -0 6.11465e-07)
(0 -0 -8.15287e-07)
(0 -0 0)
(0 -0 1.42675e-06)
(0 -0 -1.01911e-06)
(0 -0 -1.22293e-06)
(0 -0 1.01911e-06)
(0 -0 1.42675e-06)
(0 -0 2.81622e-17)
(0 -0 -1.01911e-06)
(0 -0 -1.83439e-06)
(0 -0 1.63057e-06)
(0 -0 1.22293e-06)
(0 -0 -1.22293e-06)
(0 -0 8.15287e-07)
(0 -0 -1.01911e-06)
(0 -0 -1.01911e-06)
(0 -0 -6.11465e-07)
(0 -0 -2.81486e-17)
(0 -0 0)
(0 -0 2.03822e-07)
(0 -0 2.81554e-17)
(0 -0 -2.8152e-17)
(0 -0 2.03822e-07)
(0 -0 4.07643e-08)
(0 -0 4.07643e-08)
(0 -0 2.03822e-07)
(0 -0 -2.81486e-17)
(0 -0 2.81554e-17)
(0 -0 -2.81554e-17)
(0 -0 0)
(0 -0 0)
(0 -0 -8.15287e-07)
(0 -0 -1.42675e-06)
(0 -0 2.03822e-07)
(0 -0 2.03822e-07)
(0 -0 2.03822e-07)
(0 -0 -1.63057e-06)
(0 -0 -1.01911e-06)
(0 -0 -8.44322e-17)
(0 -0 -8.15287e-07)
(0 -0 6.11465e-07)
(0 -0 4.07643e-07)
(0 -0 6.11465e-07)
(0 -0 1.22293e-06)
(0 -0 2.8135e-17)
(0 -0 -6.11465e-07)
(0 -0 -6.11465e-07)
(0 -0 1.63057e-06)
(0 -0 2.03822e-07)
(0 -0 -6.11465e-07)
(0 -0 -1.01911e-06)
(0 -0 1.01911e-06)
(0 -0 1.63057e-06)
(0 -0 -1.42675e-06)
(0 -0 2.03822e-07)
(0 -0 4.07643e-07)
(0 -0 1.01911e-06)
(0 -0 -1.1254e-16)
(0 -0 -4.07643e-07)
(0 -0 -1.68919e-16)
(0 -0 -1.22293e-06)
(0 -0 -2.03822e-07)
(0 -0 -4.07643e-07)
(0 -0 -8.44593e-17)
(0 -0 8.15287e-07)
(0 -0 2.03822e-07)
(0 -0 2.24204e-06)
(0 -0 4.07643e-07)
(0 -0 1.22293e-06)
(0 -0 -1.22293e-06)
(0 -0 4.07643e-07)
(0 -0 6.11465e-07)
(0 -0 -4.07643e-07)
(0 -0 6.11465e-07)
(0 -0 -2.53486e-16)
(0 -0 2.03822e-07)
(0 -0 -1.42675e-06)
(0 -0 -8.15287e-07)
(0 -0 2.03822e-07)
(0 -0 1.63057e-06)
(0 -0 -6.11465e-07)
(0 -0 -6.11465e-07)
(0 -0 -6.11465e-07)
(0 -0 -2.03822e-07)
(0 -0 4.07643e-07)
(0 -0 -1.01911e-06)
(0 -0 5.06756e-16)
(0 -0 1.01911e-06)
(0 -0 2.03822e-07)
(0 -0 -8.15287e-07)
(0 -0 -1.83439e-06)
(0 -0 -4.07643e-07)
(0 -0 -1.42675e-06)
(0 -0 -6.11465e-07)
(0 -0 4.07643e-07)
(0 -0 1.22293e-06)
(0 -0 -2.03822e-07)
(0 -0 -1.83439e-06)
(0 -0 2.03822e-07)
(0 -0 2.03822e-07)
(0 -0 -2.03822e-07)
(0 -0 -1.01911e-06)
(0 -0 -2.03822e-07)
(0 -0 4.07643e-07)
(0 -0 6.11465e-07)
(0 -0 -1.83439e-06)
(0 -0 -4.07643e-07)
(0 -0 4.07643e-07)
(0 -0 -9.78344e-06)
(0 -0 9.28944e-16)
(0 -0 -1.08025e-05)
(0 -0 -2.03822e-06)
(0 -0 5.91083e-06)
(0 -0 -7.13376e-06)
(0 -0 -2.03822e-07)
(0 -0 6.11465e-06)
(0 -0 1.16178e-05)
(0 -0 -3.87261e-06)
(0 -0 -2.77556e-17)
(0 -0 3.46497e-06)
(0 -0 6.31847e-06)
(0 -0 -1.22293e-05)
(0 -0 -1.10064e-05)
(0 -0 9.78344e-06)
(0 -0 -1.08025e-05)
(0 -0 8.76433e-06)
(0 -0 6.92994e-06)
(0 -0 -1.61019e-05)
(0 -0 -1.95669e-05)
(0 -0 -3.05732e-06)
(0 -0 -7.74522e-06)
(0 -0 -1.34522e-05)
(0 -0 6.11465e-07)
(0 -0 1.40637e-05)
(0 -0 6.31847e-06)
(0 -0 -2.24204e-06)
(0 -0 -1.1414e-05)
(0 -0 -1.1414e-06)
(0 -0 8.54013e-06)
(0 -0 1.7549e-05)
(0 -0 5.40127e-06)
(0 -0 -7.43949e-06)
(0 -0 -5.91083e-07)
(0 -0 5.54395e-06)
(0 -0 -9.3758e-06)
(0 -0 1.57554e-05)
(0 -0 -5.70701e-07)
(0 -0 2.81274e-06)
(0 -0 -1.48586e-05)
(0 -0 7.56178e-06)
(0 -0 8.90089e-06)
(0 -0 9.5735e-06)
(0 -0 9.56535e-06)
(0 -0 -1.14894e-05)
(0 -0 7.56178e-06)
(0 -0 -1.48586e-05)
(0 -0 2.81274e-06)
(0 -0 -5.70701e-07)
(0 -0 -4.64713e-06)
(0 -0 -9.39618e-06)
(0 -0 5.54395e-06)
(0 -0 -6.11465e-07)
(0 -0 -7.43949e-06)
(0 -0 5.40127e-06)
(0 -0 -2.8535e-06)
(0 -0 -1.17605e-05)
(0 -0 1.93223e-05)
(0 -0 8.76433e-06)
(0 -0 -2.24204e-06)
(0 -0 6.31847e-06)
(0 -0 1.38599e-05)
(0 -0 6.11465e-07)
(0 -0 7.13376e-06)
(0 -0 1.26369e-05)
(0 -0 1.73248e-05)
(0 -0 8.15287e-07)
(0 -0 4.07643e-06)
(0 -0 -1.34522e-05)
(0 -0 8.56051e-06)
(0 -0 9.57962e-06)
(0 -0 -1.03949e-05)
(0 -0 9.3758e-06)
(0 -0 -1.22293e-05)
(0 -0 6.11465e-06)
(0 -0 -1.69172e-05)
(0 -0 8.44377e-16)
(0 -0 -4.07643e-06)
(0 -0 -8.76433e-06)
(0 -0 6.11465e-06)
(0 -0 -2.03822e-07)
(0 -0 1.32484e-05)
(0 -0 5.91083e-06)
(0 -0 -2.24204e-06)
(0 -0 -1.08025e-05)
(0 -0 2.03822e-07)
(0 -0 1.05987e-05)
(0 -0 2.03822e-07)
(0 -0 1.42675e-06)
(0 -0 2.03822e-07)
(0 -0 -1.42675e-06)
(0 -0 6.11465e-07)
(0 -0 -2.03822e-07)
(0 -0 8.15287e-07)
(0 -0 -2.03822e-07)
(0 -0 2.03822e-07)
(0 -0 2.03822e-07)
(0 -0 2.03822e-07)
(0 -0 -2.03822e-07)
(0 -0 -1.01911e-06)
(0 -0 4.07643e-07)
(0 -0 -4.07643e-07)
(0 -0 4.07643e-07)
(0 -0 1.42675e-06)
(0 -0 4.07643e-07)
(0 -0 -8.15287e-07)
(0 -0 2.81459e-16)
(0 -0 -1.01911e-06)
(0 -0 5.06756e-16)
(0 -0 1.22293e-06)
(0 -0 4.07643e-07)
(0 -0 -2.03822e-07)
(0 -0 -6.11465e-07)
(0 -0 1.22293e-06)
(0 -0 1.42675e-06)
(0 -0 -4.07643e-07)
(0 -0 2.03822e-07)
(0 -0 -8.15287e-07)
(0 -0 4.07643e-07)
(0 -0 2.03822e-07)
(0 -0 2.03822e-07)
(0 -0 6.11465e-07)
(0 -0 -4.07643e-07)
(0 -0 6.11465e-07)
(0 -0 4.07643e-07)
(0 -0 -1.42675e-06)
(0 -0 1.22293e-06)
(0 -0 4.07643e-07)
(0 -0 -1.68919e-16)
(0 -0 2.03822e-07)
(0 -0 -1.01911e-06)
(0 -0 -5.63785e-17)
(0 -0 -4.07643e-07)
(0 -0 3.37837e-16)
(0 -0 6.11465e-07)
(0 -0 2.03822e-06)
(0 -0 -2.03822e-07)
(0 -0 -1.68919e-16)
(0 -0 -1.01911e-06)
(0 -0 4.07643e-07)
(0 -0 2.03822e-07)
(0 -0 6.11465e-07)
(0 -0 -4.07643e-07)
(0 -0 1.01911e-06)
(0 -0 -1.22293e-06)
(0 -0 1.42675e-06)
(0 -0 2.03822e-07)
(0 -0 1.42675e-06)
(0 -0 -6.11465e-07)
(0 -0 -4.07643e-07)
(0 -0 2.03822e-07)
(0 -0 1.22293e-06)
(0 -0 6.11465e-07)
(0 -0 4.07643e-07)
(0 -0 -1.42675e-06)
(0 -0 -1.01911e-06)
(0 -0 1.83439e-06)
(0 -0 1.01911e-06)
(0 -0 6.11465e-07)
(0 -0 2.03822e-07)
(0 -0 8.44593e-17)
(0 -0 2.03822e-07)
(0 -0 6.11465e-07)
(0 -0 1.22293e-06)
(0 -0 2.81486e-17)
(0 -0 2.03822e-07)
(0 -0 2.03822e-07)
(0 -0 -2.03822e-07)
(0 -0 5.62972e-17)
(0 -0 2.03822e-07)
(0 -0 2.03822e-08)
(0 -0 -1.83439e-07)
(0 -0 -1.40743e-17)
(0 -0 2.03822e-07)
(0 -0 0)
(0 -0 2.03822e-07)
(0 -0 0)
(0 -0 2.03822e-07)
(0 -0 6.11465e-07)
(0 -0 -2.03822e-07)
(0 -0 -6.11465e-07)
(0 -0 1.22293e-06)
(0 -0 -8.15287e-07)
(0 -0 -4.07643e-07)
(0 -0 2.03822e-07)
(0 -0 -6.11465e-07)
(0 -0 -1.22293e-06)
(0 -0 6.11465e-07)
(0 -0 1.22293e-06)
(0 -0 -1.97054e-16)
(0 -0 1.01911e-06)
(0 -0 8.15287e-07)
(0 -0 -6.11465e-07)
(0 -0 2.03822e-07)
(0 -0 1.42675e-06)
(0 -0 -6.11465e-07)
(0 -0 -1.68919e-16)
(0 -0 1.22293e-06)
(0 -0 1.01911e-06)
(0 -0 1.63057e-06)
(0 -0 6.11465e-07)
(0 -0 2.03822e-07)
(0 -0 8.15287e-07)
(0 -0 1.83439e-06)
(0 -0 -6.11465e-07)
(0 -0 -2.03822e-07)
(0 -0 -1.01911e-06)
(0 -0 8.15287e-07)
(0 -0 1.42675e-06)
(0 -0 6.11465e-07)
(0 -0 2.24204e-06)
(0 -0 6.11465e-07)
(0 -0 1.68919e-16)
(0 -0 -2.03822e-07)
(0 -0 2.03822e-07)
(0 -0 -6.11465e-07)
(0 -0 -8.15287e-07)
(0 -0 -4.07643e-07)
(0 -0 4.07643e-07)
(0 -0 -3.66027e-16)
(0 -0 -8.43509e-17)
(0 -0 6.11465e-07)
(0 -0 3.6581e-16)
(0 -0 -4.07643e-07)
(0 -0 -6.11465e-07)
(0 -0 8.45678e-17)
(0 -0 1.22293e-06)
(0 -0 4.07643e-07)
(0 -0 2.03822e-06)
(0 -0 9.00755e-16)
(0 -0 2.03822e-07)
(0 -0 -1.22293e-06)
(0 -0 -4.07643e-07)
(0 -0 4.07643e-07)
(0 -0 -6.11465e-07)
(0 -0 -1.42675e-06)
(0 -0 -2.03822e-07)
(0 -0 1.01911e-06)
(0 -0 2.03822e-07)
(0 -0 -6.11465e-07)
(0 -0 -1.63057e-06)
(0 -0 -6.11465e-07)
(0 -0 2.03822e-07)
(0 -0 6.11465e-07)
(0 -0 -1.22293e-06)
(0 -0 -1.22293e-06)
(0 -0 4.07643e-07)
(0 -0 -4.07643e-07)
(0 -0 6.11465e-07)
(0 -0 8.15287e-07)
(0 -0 -1.42675e-06)
(0 -0 2.03822e-07)
(0 -0 8.15287e-07)
(0 -0 -1.01911e-06)
(0 -0 1.28408e-05)
(0 -0 1.16178e-05)
(0 -0 -1.03949e-05)
(0 -0 -1.28408e-05)
(0 -0 4.07643e-06)
(0 -0 -2.03822e-07)
(0 -0 1.54904e-05)
(0 -0 -1.05987e-05)
(0 -0 3.05732e-06)
(0 -0 -4.28025e-06)
(0 -0 7.74522e-06)
(0 -0 -1.63057e-06)
(0 -0 -1.16178e-05)
(0 -0 -2.44586e-06)
(0 -0 -1.44713e-05)
(0 -0 -6.92994e-06)
(0 -0 -6.11465e-07)
(0 -0 4.89172e-06)
(0 -0 -1.10064e-05)
(0 -0 -7.33758e-06)
(0 -0 1.54904e-05)
(0 -0 -3.26115e-06)
(0 -0 -2.64968e-06)
(0 -0 -3.05732e-06)
(0 -0 -4.28025e-06)
(0 -0 -6.52229e-06)
(0 -0 1.05987e-05)
(0 -0 -1.40637e-05)
(0 -0 -1.89554e-05)
(0 -0 -4.6879e-06)
(0 -0 8.56051e-06)
(0 -0 6.11465e-07)
(0 -0 -8.35669e-06)
(0 -0 2.30318e-06)
(0 -0 -8.31592e-06)
(0 -0 4.48408e-07)
(0 -0 8.31592e-06)
(0 -0 -5.07516e-06)
(0 -0 1.03949e-06)
(0 -0 6.27771e-06)
(0 -0 -9.76306e-06)
(0 -0 -6.29809e-06)
(0 -0 -3.68917e-06)
(0 -0 -1.95873e-06)
(0 -0 -1.09045e-06)
(0 -0 -1.0986e-06)
(0 -0 -1.96688e-06)
(0 -0 1.6693e-05)
(0 -0 -6.29809e-06)
(0 -0 -9.76306e-06)
(0 -0 6.25732e-06)
(0 -0 1.01911e-06)
(0 -0 -5.07516e-06)
(0 -0 8.31592e-06)
(0 -0 -1.99541e-05)
(0 -0 -8.41783e-06)
(0 -0 -1.79567e-05)
(0 -0 -8.15287e-06)
(0 -0 4.07643e-07)
(0 -0 8.56051e-06)
(0 -0 -4.6879e-06)
(0 -0 1.22293e-06)
(0 -0 -1.40637e-05)
(0 -0 1.05987e-05)
(0 -0 -6.52229e-06)
(0 -0 1.61019e-05)
(0 -0 -3.05732e-06)
(0 -0 1.75287e-05)
(0 -0 -3.26115e-06)
(0 -0 -4.89172e-06)
(0 -0 -7.5414e-06)
(0 -0 -1.10064e-05)
(0 -0 4.89172e-06)
(0 -0 -6.11465e-07)
(0 -0 -6.92994e-06)
(0 -0 5.91083e-06)
(0 -0 -2.44586e-06)
(0 -0 -1.16178e-05)
(0 -0 -1.63057e-06)
(0 -0 7.74522e-06)
(0 -0 1.61019e-05)
(0 -0 -1.73248e-05)
(0 -0 -1.08025e-05)
(0 -0 -5.09554e-06)
(0 -0 -2.2508e-16)
(0 -0 4.07643e-06)
(0 -0 7.33758e-06)
(0 -0 -1.05987e-05)
(0 -0 -8.76433e-06)
(0 -0 -7.5414e-06)
(0 -0 1.01911e-06)
(0 -0 -1.22293e-06)
(0 -0 2.81893e-17)
(0 -0 8.15287e-07)
(0 -0 -1.22293e-06)
(0 -0 -1.63057e-06)
(0 -0 -4.07643e-07)
(0 -0 -1.63057e-06)
(0 -0 8.15287e-07)
(0 -0 8.15287e-07)
(0 -0 6.11465e-07)
(0 -0 4.22405e-16)
(0 -0 1.42675e-06)
(0 -0 4.07643e-07)
(0 -0 -8.15287e-07)
(0 -0 2.03822e-07)
(0 -0 -1.01911e-06)
(0 -0 -2.03822e-07)
(0 -0 6.11465e-07)
(0 -0 -6.11465e-07)
(0 -0 -1.63057e-06)
(0 -0 -4.07643e-07)
(0 -0 8.15287e-07)
(0 -0 2.03822e-07)
(0 -0 -1.1254e-16)
(0 -0 1.1254e-16)
(0 -0 4.07643e-07)
(0 -0 -1.01911e-06)
(0 -0 1.40729e-16)
(0 -0 -4.07643e-07)
(0 -0 1.42675e-06)
(0 -0 -2.03822e-07)
(0 -0 8.15287e-07)
(0 -0 2.03822e-07)
(0 -0 1.1254e-16)
(0 -0 4.07643e-07)
(0 -0 -6.11465e-07)
(0 -0 -1.01911e-06)
(0 -0 -6.11465e-07)
(0 -0 4.07643e-07)
(0 -0 -2.03822e-07)
(0 -0 -2.03822e-07)
(0 -0 8.15287e-07)
(0 -0 4.07643e-07)
(0 -0 -1.63057e-06)
(0 -0 1.22293e-06)
(0 -0 8.15287e-07)
(0 -0 1.01911e-06)
(0 -0 -2.03822e-07)
(0 -0 1.42675e-06)
(0 -0 -2.03822e-07)
(0 -0 8.15287e-07)
(0 -0 2.03822e-07)
(0 -0 4.07643e-07)
(0 -0 -4.07643e-07)
(0 -0 -8.15287e-07)
(0 -0 1.22293e-06)
(0 -0 2.81893e-17)
(0 -0 -6.11465e-07)
(0 -0 1.42675e-06)
(0 -0 2.24204e-06)
(0 -0 -8.15287e-07)
(0 -0 8.15287e-07)
(0 -0 1.22293e-06)
(0 -0 -2.03822e-07)
(0 -0 -1.01911e-06)
(0 -0 8.15287e-07)
(0 -0 1.01911e-06)
(0 -0 1.42675e-06)
(0 -0 2.03822e-07)
(0 -0 -4.07643e-07)
(0 -0 1.22293e-06)
(0 -0 -8.15287e-07)
(0 -0 1.42675e-06)
(0 -0 -2.03822e-07)
(0 -0 6.11465e-07)
(0 -0 2.03822e-07)
(0 -0 2.03822e-07)
(0 -0 -2.81486e-17)
(0 -0 -2.81486e-17)
(0 -0 -2.81554e-17)
(0 -0 4.22263e-17)
(0 -0 -1.63057e-07)
(0 -0 4.07643e-08)
(0 -0 -2.03822e-07)
(0 -0 -8.44526e-17)
(0 -0 2.03822e-07)
(0 -0 2.81486e-17)
(0 -0 2.03822e-07)
(0 -0 2.03822e-07)
(0 -0 -2.03822e-07)
(0 -0 8.15287e-07)
(0 -0 4.07643e-07)
(0 -0 1.12622e-16)
(0 -0 1.83439e-06)
(0 -0 2.03822e-07)
(0 -0 1.22293e-06)
(0 -0 6.11465e-07)
(0 -0 2.03822e-07)
(0 -0 -1.63057e-06)
(0 -0 -8.15287e-07)
(0 -0 6.11465e-07)
(0 -0 6.11465e-07)
(0 -0 -8.15287e-07)
(0 -0 4.07643e-07)
(0 -0 2.03822e-07)
(0 -0 -1.01911e-06)
(0 -0 2.03822e-07)
(0 -0 5.62701e-17)
(0 -0 1.01911e-06)
(0 -0 6.11465e-07)
(0 -0 6.11465e-07)
(0 -0 1.63057e-06)
(0 -0 -4.07643e-07)
(0 -0 4.07643e-07)
(0 -0 0)
(0 -0 2.03822e-07)
(0 -0 1.42675e-06)
(0 -0 -6.11465e-07)
(0 -0 2.03822e-07)
(0 -0 1.1254e-16)
(0 -0 6.11465e-07)
(0 -0 1.83439e-06)
(0 -0 -2.2508e-16)
(0 -0 -8.15287e-07)
(0 -0 -1.22293e-06)
(0 -0 1.42675e-06)
(0 -0 8.15287e-07)
(0 -0 1.01911e-06)
(0 -0 0)
(0 -0 -4.07643e-07)
(0 -0 -5.61617e-17)
(0 -0 -1.01911e-06)
(0 -0 6.11465e-07)
(0 -0 -1.01911e-06)
(0 -0 2.03822e-06)
(0 -0 -4.07643e-07)
(0 -0 -4.07643e-07)
(0 -0 -6.75675e-16)
(0 -0 1.01911e-06)
(0 -0 6.11465e-07)
(0 -0 4.07643e-07)
(0 -0 4.07643e-07)
(0 -0 1.01911e-06)
(0 -0 1.83439e-06)
(0 -0 6.11465e-07)
(0 -0 -2.03822e-07)
(0 -0 1.01911e-06)
(0 -0 4.07643e-07)
(0 -0 -2.03822e-07)
(0 -0 -1.01911e-06)
(0 -0 4.07643e-07)
(0 -0 -6.11465e-07)
(0 -0 4.07643e-07)
(0 -0 -8.15287e-07)
(0 -0 -2.03822e-07)
(0 -0 -5.34729e-16)
(0 -0 -4.07643e-07)
(0 -0 -1.01911e-06)
(0 -0 -2.81893e-16)
(0 -0 4.07643e-07)
(0 -0 -1.83439e-06)
(0 -0 -4.07643e-07)
(0 -0 -1.83439e-06)
(0 -0 -8.45678e-17)
(0 -0 -8.15287e-07)
(0 -0 5.70701e-06)
(0 -0 1.34522e-05)
(0 -0 -6.47486e-16)
(0 -0 6.11465e-06)
(0 -0 1.10064e-05)
(0 -0 -5.29936e-06)
(0 -0 -2.03822e-06)
(0 -0 2.25514e-16)
(0 -0 1.01911e-06)
(0 -0 1.01911e-06)
(0 -0 7.3162e-16)
(0 -0 -2.24204e-06)
(0 -0 -5.50318e-06)
(0 -0 -9.98726e-06)
(0 -0 4.48408e-06)
(0 -0 -2.24204e-06)
(0 -0 -9.98726e-06)
(0 -0 1.22293e-06)
(0 -0 -9.17197e-06)
(0 -0 -4.07643e-07)
(0 -0 7.33758e-06)
(0 -0 1.38599e-05)
(0 -0 -1.22293e-06)
(0 -0 2.8535e-06)
(0 -0 5.70701e-06)
(0 -0 -1.28408e-05)
(0 -0 -1.22293e-05)
(0 -0 -1.28408e-05)
(0 -0 5.70701e-06)
(0 -0 2.8535e-06)
(0 -0 -1.22293e-06)
(0 -0 -6.31847e-06)
(0 -0 -1.26369e-05)
(0 -0 2.03822e-07)
(0 -0 1.20255e-05)
(0 -0 2.2828e-06)
(0 -0 -8.41783e-06)
(0 -0 1.42675e-07)
(0 -0 -1.27796e-05)
(0 -0 1.39822e-05)
(0 -0 -1.10064e-06)
(0 -0 3.13885e-06)
(0 -0 -1.40637e-05)
(0 -0 8.43006e-06)
(0 -0 -1.08841e-05)
(0 -0 -1.08963e-05)
(0 -0 8.43822e-06)
(0 -0 -1.40637e-05)
(0 -0 3.13885e-06)
(0 -0 -1.10064e-06)
(0 -0 1.39618e-05)
(0 -0 -1.28e-05)
(0 -0 1.22293e-07)
(0 -0 -8.47898e-06)
(0 -0 -1.79567e-05)
(0 -0 1.20255e-05)
(0 -0 2.03822e-07)
(0 -0 -1.26369e-05)
(0 -0 -6.52229e-06)
(0 -0 -1.22293e-06)
(0 -0 -1.75287e-05)
(0 -0 5.70701e-06)
(0 -0 -1.30446e-05)
(0 -0 -1.24331e-05)
(0 -0 7.5414e-06)
(0 -0 -1.46752e-05)
(0 -0 -1.75287e-05)
(0 -0 -1.22293e-06)
(0 -0 -6.52229e-06)
(0 -0 -1.30446e-05)
(0 -0 -4.07643e-07)
(0 -0 -9.17197e-06)
(0 -0 1.01911e-06)
(0 -0 -1.01911e-05)
(0 -0 -2.03822e-06)
(0 -0 4.6879e-06)
(0 -0 -1.01911e-05)
(0 -0 1.46752e-05)
(0 -0 -2.24204e-06)
(0 -0 7.03864e-16)
(0 -0 1.01911e-06)
(0 -0 1.01911e-06)
(0 -0 3.66027e-16)
(0 -0 -2.24204e-06)
(0 -0 -5.29936e-06)
(0 -0 1.10064e-05)
(0 -0 5.91083e-06)
(0 -0 -1.46367e-15)
(0 -0 -6.92994e-06)
(0 -0 -1.46752e-05)
(0 -0 -8.15287e-07)
(0 -0 -2.2508e-16)
(0 -0 5.59448e-17)
(0 -0 -6.11465e-07)
(0 -0 2.03822e-07)
(0 -0 4.07643e-07)
(0 -0 -1.97325e-16)
(0 -0 -1.01911e-06)
(0 -0 -4.07643e-07)
(0 -0 -2.03822e-07)
(0 -0 1.83439e-06)
(0 -0 1.22293e-06)
(0 -0 -1.63057e-06)
(0 -0 1.63057e-06)
(0 -0 2.03822e-07)
(0 -0 -1.01911e-06)
(0 -0 -2.03822e-07)
(0 -0 2.03822e-07)
(0 -0 -1.01911e-06)
(0 -0 -2.03822e-07)
(0 -0 6.11465e-07)
(0 -0 -2.03822e-07)
(0 -0 -1.01911e-06)
(0 -0 4.07643e-07)
(0 -0 2.03822e-07)
(0 -0 6.11465e-07)
(0 -0 -8.15287e-07)
(0 -0 1.68919e-16)
(0 -0 -6.11465e-07)
(0 -0 1.42675e-06)
(0 -0 -4.50594e-16)
(0 -0 -1.01911e-06)
(0 -0 6.11465e-07)
(0 -0 -1.01911e-06)
(0 -0 -4.50378e-16)
(0 -0 -4.07643e-07)
(0 -0 -5.61617e-17)
(0 -0 1.01911e-06)
(0 -0 8.15287e-07)
(0 -0 1.42675e-06)
(0 -0 8.15287e-07)
(0 -0 -1.01911e-06)
(0 -0 2.03822e-06)
(0 -0 2.03822e-06)
(0 -0 6.11465e-07)
(0 -0 -2.03822e-07)
(0 -0 2.03822e-07)
(0 -0 -6.11465e-07)
(0 -0 -6.11465e-07)
(0 -0 2.03822e-07)