/*--------------------------------*- C++ -*----------------------------------*\
| =========                 |                                                 |
| \\      /  F ield         | OpenFOAM: The Open Source CFD Toolbox           |
|  \\    /   O peration     | Version:  2212                                  |
|   \\  /    A nd           | Website:  www.openfoam.com                      |
|    \\/     M anipulation  |                                                 |
\*---------------------------------------------------------------------------*/
FoamFile
{
    version     2.0;
    format      ascii;
    arch        "LSB;label=32;scalar=64";
    class       volScalarField;
    location    "1.2";
    object      T;
}
// * * * * * * * * * * * * * * * * * * * * * * * * * * * * * * * * * * * * * //

dimensions      [0 0 0 1 0 0 0];

internalField   nonuniform List<scalar> 
400
(
3.3326e-05
0.000124247
0.000479915
0.00160363
0.00459274
0.0113657
0.0245329
0.0464489
0.0772876
0.113297
0.147675
0.17435
0.190589
0.194696
0.186598
0.165267
0.131048
0.0886508
0.0517236
0.0318817
8.9538e-05
0.000354105
0.00140723
0.00468905
0.013016
0.0304869
0.0611288
0.10607
0.160676
0.215108
0.259978
0.291599
0.310256
0.314354
0.303032
0.272301
0.218845
0.1472
0.0828057
0.0497375
0.000245856
0.00101365
0.00405662
0.0131811
0.0347329
0.0755643
0.138385
0.216829
0.29526
0.357655
0.399327
0.425582
0.4409
0.445809
0.438678
0.411565
0.352455
0.253144
0.144369
0.0867556
0.000570014
0.0024039
0.0095228
0.0297568
0.0736725
0.147664
0.244777
0.342052
0.413131
0.450319
0.467435
0.477436
0.485901
0.496194
0.506052
0.506631
0.478394
0.392629
0.24624
0.149222
0.00110833
0.004706
0.0182591
0.0545149
0.126171
0.23148
0.344289
0.425828
0.457017
0.455498
0.447557
0.442207
0.446054
0.461455
0.488828
0.523685
0.547766
0.524226
0.396797
0.244524
0.00183044
0.00773724
0.0292683
0.0834518
0.180694
0.303712
0.406383
0.448671
0.435617
0.406127
0.383092
0.368123
0.367329
0.379569
0.410955
0.464483
0.53183
0.584318
0.551909
0.37329
0.0026043
0.0108813
0.0401439
0.109918
0.224713
0.350468
0.429156
0.432486
0.390842
0.351928
0.328039
0.313171
0.308359
0.310605
0.329151
0.376459
0.457332
0.556886
0.624717
0.53465
0.00323282
0.0133097
0.0481454
0.128165
0.251925
0.373112
0.429652
0.407743
0.355936
0.322889
0.31004
0.303528
0.298108
0.28951
0.286421
0.309669
0.378776
0.490625
0.6112
0.662232
0.00354354
0.0143801
0.0514611
0.135433
0.261948
0.378843
0.423181
0.390681
0.33959
0.317012
0.316969
0.319873
0.317217
0.302893
0.28055
0.273713
0.318586
0.427673
0.566234
0.667767
0.00346673
0.0138902
0.0496326
0.131369
0.256133
0.37252
0.416743
0.385084
0.337071
0.319482
0.325788
0.335196
0.338229
0.326375
0.294738
0.261269
0.274991
0.374215
0.53038
0.649126
0.00304676
0.0120856
0.0434693
0.117425
0.235884
0.354792
0.40971
0.388258
0.343318
0.322974
0.327402
0.339499
0.34914
0.344616
0.313398
0.263785
0.246923
0.327274
0.496277
0.645736
0.00244415
0.00959888
0.0347491
0.0963534
0.202428
0.322705
0.396648
0.396833
0.360142
0.334469
0.331484
0.341575
0.354029
0.353956
0.324941
0.268212
0.229144
0.290559
0.467287
0.638996
0.00180042
0.00698722
0.0254613
0.0724953
0.159801
0.273215
0.365694
0.39844
0.384028
0.361588
0.352052
0.355268
0.362498
0.358194
0.326786
0.266953
0.213844
0.258695
0.443729
0.639521
0.00128065
0.0049198
0.0176122
0.0504041
0.114999
0.209568
0.306518
0.368886
0.387447
0.382886
0.375576
0.372017
0.368356
0.353019
0.315535
0.255741
0.198145
0.231543
0.423534
0.6393
0.000791218
0.00293417
0.0110505
0.0324141
0.0756609
0.144227
0.226811
0.298865
0.342727
0.360852
0.364388
0.360195
0.348945
0.325262
0.285255
0.231016
0.178407
0.207312
0.408878
0.643868
0.000819001
0.00309114
0.00824941
0.0207646
0.0465462
0.0894994
0.146927
0.207048
0.2556
0.286179
0.300426
0.301458
0.291344
0.269436
0.236326
0.195584
0.156731
0.187027
0.398345
0.648909
-0.00104977
-0.00198274
0.00218694
0.0110325
0.0263915
0.0507714
0.0844264
0.123382
0.160302
0.188728
0.206246
0.21259
0.209155
0.19714
0.178551
0.157071
0.138493
0.172998
0.396696
0.659541
0.0165076
0.0129406
0.0105148
0.0108056
0.0157201
0.0255437
0.0405758
0.0595594
0.0800505
0.0985443
0.113092
0.122791
0.128066
0.130324
0.130526
0.132199
0.139558
0.187694
0.415203
0.675494
-0.155896
-0.0307031
-0.0204279
-0.00760808
0.00405068
0.0174812
0.0318912
0.0484894
0.0650078
0.0834225
0.100405
0.118931
0.135342
0.152938
0.169745
0.188567
0.218935
0.279931
0.472759
0.703788
0.186787
0.270382
0.323369
0.361504
0.389738
0.413879
0.433388
0.452388
0.468017
0.484814
0.498616
0.514648
0.527384
0.542878
0.554495
0.570396
0.58362
0.61322
0.667017
0.772476
)
;

boundaryField
{
    movingWall
    {
        type            fixedValue;
        value           uniform 1;
    }
    fixedWalls
    {
        type            zeroGradient;
    }
    frontAndBack
    {
        type            empty;
    }
}


// ************************************************************************* //
