/*--------------------------------*- C++ -*----------------------------------*\
| =========                 |                                                 |
| \\      /  F ield         | OpenFOAM: The Open Source CFD Toolbox           |
|  \\    /   O peration     | Version:  2212                                  |
|   \\  /    A nd           | Website:  www.openfoam.com                      |
|    \\/     M anipulation  |                                                 |
\*---------------------------------------------------------------------------*/
FoamFile
{
    version     2.0;
    format      ascii;
    arch        "LSB;label=32;scalar=64";
    class       volScalarField;
    location    "13.1";
    object      p;
}
// * * * * * * * * * * * * * * * * * * * * * * * * * * * * * * * * * * * * * //

dimensions      [0 2 -2 0 0 0 0];

internalField   nonuniform List<scalar> 
400
(
2.93851e-07
-0.000150725
-0.000534813
-0.00107202
-0.00173274
-0.00249422
-0.00318535
-0.00359792
-0.00356568
-0.00293442
-0.0015489
0.000619051
0.0032493
0.00551384
0.00653351
0.00592261
0.00400177
0.00214933
0.00111033
0.00104128
0.000116159
-5.82594e-05
-0.000377208
-0.000764382
-0.0012443
-0.00188842
-0.00270655
-0.00354389
-0.00408037
-0.00393878
-0.0028468
-0.000825214
0.00168906
0.00396064
0.00512443
0.00474281
0.00310268
0.00137443
0.000592841
0.000683885
0.00053627
0.000264802
-7.74919e-05
-0.000559848
-0.00134755
-0.00258095
-0.00421954
-0.00598424
-0.00740304
-0.00794435
-0.00726466
-0.00546245
-0.00289207
-0.000195037
0.00179138
0.00242738
0.00170844
0.00050173
-0.000396462
-0.00039317
0.00115178
0.000741099
0.000191709
-0.000775029
-0.00245143
-0.00493823
-0.00799564
-0.0111211
-0.013704
-0.0151775
-0.0152074
-0.0138404
-0.0112942
-0.0080296
-0.00475276
-0.00221026
-0.000870942
-0.000706787
-0.0012894
-0.00191873
0.00158319
0.000973584
-2.30463e-05
-0.00192435
-0.00500705
-0.00918059
-0.0139143
-0.0184804
-0.0222168
-0.0246536
-0.0255292
-0.0247235
-0.022364
-0.018744
-0.0143052
-0.00965625
-0.00559267
-0.00294947
-0.00219383
-0.00401856
0.00129325
0.000444896
-0.00119753
-0.00430469
-0.00900547
-0.0148812
-0.0210734
-0.026716
-0.031192
-0.0341793
-0.0355461
-0.0351901
-0.0331975
-0.0297192
-0.0248999
-0.0189615
-0.0125058
-0.0069489
-0.00440145
-0.00652476
-4.84258e-05
-0.0011477
-0.00349968
-0.0077972
-0.013933
-0.021115
-0.0282369
-0.0344085
-0.0391295
-0.0422328
-0.0437206
-0.0436112
-0.0419734
-0.0388793
-0.0343114
-0.0281576
-0.0205395
-0.0127033
-0.00785532
-0.00774851
-0.00245061
-0.00374234
-0.00669885
-0.0119138
-0.0190404
-0.0269825
-0.0345049
-0.04078
-0.0454517
-0.0484779
-0.0499406
-0.0499319
-0.0485311
-0.0457891
-0.0416629
-0.0359272
-0.0283261
-0.0193715
-0.0118228
-0.00798102
-0.0055378
-0.0069154
-0.0102639
-0.0160224
-0.0236588
-0.0318902
-0.0394521
-0.0456139
-0.0501384
-0.0530586
-0.0544877
-0.0545278
-0.0532536
-0.0507266
-0.0469628
-0.0418126
-0.0348684
-0.0259482
-0.0167096
-0.009995
-0.00873394
-0.0100861
-0.013598
-0.0195426
-0.027287
-0.0354878
-0.042913
-0.0489107
-0.0533105
-0.0561685
-0.0575925
-0.0576637
-0.0564453
-0.054012
-0.0504519
-0.0457611
-0.0396346
-0.0315245
-0.0223217
-0.0143403
-0.0115043
-0.0127581
-0.0162196
-0.0220547
-0.0296076
-0.0375893
-0.0448272
-0.0507002
-0.0550437
-0.0578952
-0.0593376
-0.0594291
-0.0582198
-0.0557898
-0.0522876
-0.047853
-0.0424317
-0.0353831
-0.0271984
-0.0191798
-0.0135495
-0.0146189
-0.0178561
-0.0233158
-0.0304314
-0.0380633
-0.0451184
-0.0509505
-0.0553299
-0.0582414
-0.0597291
-0.0598315
-0.0585894
-0.0560839
-0.0525162
-0.0481387
-0.0432073
-0.0370568
-0.0300323
-0.0224176
-0.0148375
-0.015568
-0.018352
-0.0232105
-0.0296937
-0.0368792
-0.0437651
-0.0496408
-0.0541556
-0.0572017
-0.0587708
-0.0588779
-0.0575586
-0.0549165
-0.0511777
-0.0466563
-0.0419658
-0.0363004
-0.0302264
-0.0228962
-0.0154679
-0.0157222
-0.0177774
-0.0217464
-0.0273899
-0.0340319
-0.0407509
-0.046741
-0.0514934
-0.0547688
-0.0564828
-0.0566238
-0.0552021
-0.0523534
-0.0483465
-0.0435821
-0.0387309
-0.0331416
-0.0280998
-0.0202794
-0.0155744
-0.0152982
-0.0163381
-0.0190878
-0.0236532
-0.0296343
-0.0361718
-0.0423361
-0.047428
-0.0510399
-0.0529806
-0.0531839
-0.0516913
-0.0485917
-0.044227
-0.039054
-0.0337819
-0.0280717
-0.0242316
-0.014385
-0.0152768
-0.0145502
-0.0142608
-0.015426
-0.0186849
-0.0238947
-0.0302315
-0.0366149
-0.0421381
-0.0462015
-0.0484897
-0.0488667
-0.0473534
-0.0440211
-0.0392491
-0.033519
-0.0276413
-0.0216293
-0.0180535
-0.0038329
-0.0146621
-0.0136182
-0.0117069
-0.0110811
-0.0129537
-0.0173803
-0.0235341
-0.0301706
-0.0361935
-0.0408117
-0.0435789
-0.0442619
-0.0428508
-0.0393765
-0.0341854
-0.0276898
-0.0206822
-0.0132761
-0.0067857
0.016053
-0.0145833
-0.0126572
-0.00864849
-0.00623463
-0.00691009
-0.0107459
-0.0168179
-0.0237401
-0.0302988
-0.0355394
-0.0389038
-0.0400352
-0.0388777
-0.0354481
-0.0298959
-0.0222758
-0.0128726
-0.000688072
0.0166952
0.057064
-0.0117946
-0.0118307
-0.00572612
-0.00177502
-0.001765
-0.00540474
-0.0115752
-0.018815
-0.0258756
-0.0316876
-0.0356624
-0.037362
-0.0366854
-0.0333554
-0.0272242
-0.0175415
-0.00314818
0.0204904
0.0607045
0.129821
-0.0295169
-0.0106298
-0.000608882
0.00308081
0.00244825
-0.00155701
-0.00799948
-0.0155534
-0.0229762
-0.0291739
-0.033532
-0.0355881
-0.0352013
-0.0319558
-0.0252277
-0.01286
0.00942268
0.0511716
0.122878
0.226076
)
;

boundaryField
{
    movingWall
    {
        type            zeroGradient;
    }
    fixedWalls
    {
        type            zeroGradient;
    }
    frontAndBack
    {
        type            empty;
    }
}


// ************************************************************************* //
