/*--------------------------------*- C++ -*----------------------------------*\
| =========                 |                                                 |
| \\      /  F ield         | OpenFOAM: The Open Source CFD Toolbox           |
|  \\    /   O peration     | Version:  2212                                  |
|   \\  /    A nd           | Website:  www.openfoam.com                      |
|    \\/     M anipulation  |                                                 |
\*---------------------------------------------------------------------------*/
FoamFile
{
    version     2.0;
    format      ascii;
    arch        "LSB;label=32;scalar=64";
    class       surfaceScalarField;
    location    "13.1";
    object      phi;
}
// * * * * * * * * * * * * * * * * * * * * * * * * * * * * * * * * * * * * * //

dimensions      [0 3 -1 0 0 0 0];

oriented        oriented;

internalField   nonuniform List<scalar> 
760
(
1.56094e-07
-1.5612e-07
2.93638e-07
-1.37544e-07
3.10001e-07
-1.63633e-08
1.83692e-07
1.2631e-07
-1.20299e-07
3.03991e-07
-6.65925e-07
5.45626e-07
-1.48528e-06
8.19353e-07
-2.49088e-06
1.0056e-06
-3.48037e-06
9.89492e-07
-4.22037e-06
7.39997e-07
-4.54399e-06
3.23623e-07
-4.35366e-06
-1.90334e-07
-3.59375e-06
-7.59906e-07
-2.37897e-06
-1.21479e-06
-9.39985e-07
-1.43898e-06
3.47789e-07
-1.28777e-06
1.08997e-06
-7.4218e-07
1.0331e-06
5.68723e-08
4.61001e-07
5.72096e-07
4.61001e-07
1.25057e-07
-2.81177e-07
7.4622e-08
-8.7109e-08
-2.97013e-07
3.55272e-07
-1.0789e-06
9.082e-07
-2.31595e-06
1.54104e-06
-3.92744e-06
2.15712e-06
-5.66237e-06
2.55428e-06
-7.20711e-06
2.55034e-06
-8.33702e-06
2.1194e-06
-8.94236e-06
1.34534e-06
-8.97628e-06
3.57539e-07
-8.41626e-06
-7.5035e-07
-7.29367e-06
-1.8825e-06
-5.64205e-06
-2.8664e-06
-3.60581e-06
-3.47522e-06
-1.49021e-06
-3.40337e-06
1.78758e-07
-2.41115e-06
8.59009e-07
-6.23379e-07
5.25716e-07
9.05388e-07
9.86718e-07
-1.27594e-07
-1.53583e-07
-6.33925e-07
4.19222e-07
-1.62494e-06
1.34629e-06
-3.14151e-06
2.42477e-06
-5.0576e-06
3.45713e-06
-7.07349e-06
4.173e-06
-8.8736e-06
4.35439e-06
-1.02779e-05
3.95462e-06
-1.12347e-05
3.07619e-06
-1.17362e-05
1.8469e-06
-1.17303e-05
3.51577e-07
-1.12713e-05
-1.20928e-06
-1.03386e-05
-2.81522e-06
-8.87793e-06
-4.32708e-06
-6.86964e-06
-5.48351e-06
-4.40325e-06
-5.86977e-06
-1.87874e-06
-4.93565e-06
-8.63872e-08
-2.41573e-06
2.94695e-07
5.24306e-07
1.28141e-06
-5.00532e-07
3.4695e-07
-1.56002e-06
1.47871e-06
-3.11956e-06
2.90583e-06
-5.08151e-06
4.38672e-06
-7.18545e-06
5.56106e-06
-9.12349e-06
6.11104e-06
-1.06934e-05
5.92427e-06
-1.18526e-05
5.11385e-06
-1.26292e-05
3.85283e-06
-1.30579e-05
2.27555e-06
-1.31229e-05
4.16619e-07
-1.28834e-05
-1.4488e-06
-1.23006e-05
-3.39806e-06
-1.12726e-05
-5.35502e-06
-9.6689e-06
-7.08725e-06
-7.36473e-06
-8.17394e-06
-4.39881e-06
-7.90157e-06
-1.37807e-06
-5.43648e-06
1.2074e-07
-9.74502e-07
1.40215e-06
-8.6197e-07
1.20892e-06
-2.36178e-06
2.97852e-06
-4.23293e-06
4.77698e-06
-6.28036e-06
6.43415e-06
-8.22283e-06
7.50354e-06
-9.83763e-06
7.72584e-06
-1.10481e-05
7.13472e-06
-1.18807e-05
5.9465e-06
-1.23973e-05
4.36945e-06
-1.26706e-05
2.54877e-06
-1.27911e-05
5.37207e-07
-1.27455e-05
-1.49446e-06
-1.25248e-05
-3.61875e-06
-1.20502e-05
-5.82964e-06
-1.11354e-05
-8.00199e-06
-9.49265e-06
-9.81673e-06
-6.82234e-06
-1.05719e-05
-3.22304e-06
-9.03577e-06
-2.61165e-07
-3.93638e-06
1.14099e-06
-1.08714e-06
2.29606e-06
-2.78474e-06
4.67612e-06
-4.67862e-06
6.67086e-06
-6.53677e-06
8.2923e-06
-8.13483e-06
9.1016e-06
-9.34179e-06
8.9328e-06
-1.01537e-05
7.94659e-06
-1.06356e-05
6.42839e-06
-1.08777e-05
4.61157e-06
-1.09797e-05
2.65076e-06
-1.10629e-05
6.2042e-07
-1.11134e-05
-1.44392e-06
-1.11475e-05
-3.58465e-06
-1.11363e-05
-5.84082e-06
-1.09266e-05
-8.21175e-06
-1.01913e-05
-1.0552e-05
-8.4362e-06
-1.2327e-05
-5.24513e-06
-1.22268e-05
-1.15868e-06
-8.02283e-06
-1.76919e-08
-1.11127e-06
3.40733e-06
-2.75945e-06
6.3243e-06
-4.45751e-06
8.36892e-06
-5.99363e-06
9.82842e-06
-7.2077e-06
1.03157e-05
-8.03742e-06
9.76252e-06
-8.52056e-06
8.42973e-06
-8.74411e-06
6.65194e-06
-8.81151e-06
4.67897e-06
-8.81945e-06
2.65871e-06
-8.85001e-06
6.5098e-07
-8.92135e-06
-1.37259e-06
-9.05342e-06
-3.45258e-06
-9.25791e-06
-5.63634e-06
-9.47884e-06
-7.99082e-06
-9.48548e-06
-1.05454e-05
-8.75916e-06
-1.30533e-05
-6.54135e-06
-1.44446e-05
-2.425e-06
-1.21392e-05
-2.44269e-06
-9.36652e-07
4.34398e-06
-2.34905e-06
7.7367e-06
-3.73706e-06
9.75693e-06
-4.91716e-06
1.10085e-05
-5.78841e-06
1.11869e-05
-6.33404e-06
1.03081e-05
-6.61125e-06
8.70694e-06
-6.71104e-06
6.75173e-06
-6.72921e-06
4.69715e-06
-6.73846e-06
2.66795e-06
-6.7741e-06
6.86621e-07
-6.85291e-06
-1.29378e-06
-6.99579e-06
-3.30969e-06
-7.23341e-06
-5.39872e-06
-7.58338e-06
-7.64085e-06
-7.95575e-06
-1.0173e-05
-7.94149e-06
-1.30676e-05
-6.72264e-06
-1.56635e-05
-3.5899e-06
-1.52719e-05
-6.03259e-06
-6.26081e-07
4.97007e-06
-1.68979e-06
8.80041e-06
-2.72408e-06
1.07912e-05
-3.56431e-06
1.18488e-05
-4.15501e-06
1.17776e-05
-4.50636e-06
1.06595e-05
-4.6773e-06
8.87789e-06
-4.74616e-06
6.82058e-06
-4.78502e-06
4.73601e-06
-4.83708e-06
2.72001e-06
-4.91213e-06
7.61676e-07
-5.01634e-06
-1.18957e-06
-5.15944e-06
-3.16658e-06
-5.36997e-06
-5.18819e-06
-5.70309e-06
-7.30773e-06
-6.17301e-06
-9.70307e-06
-6.56309e-06
-1.26775e-05
-6.13299e-06
-1.60936e-05
-3.92714e-06
-1.74778e-05
-9.95974e-06
-2.33283e-07
5.20335e-06
-8.95055e-07
9.46218e-06
-1.56763e-06
1.14638e-05
-2.0982e-06
1.23793e-05
-2.45911e-06
1.21385e-05
-2.67467e-06
1.08751e-05
-2.79309e-06
8.9963e-06
-2.86756e-06
6.89505e-06
-2.94252e-06
4.81097e-06
-3.03977e-06
2.81727e-06
-3.16202e-06
8.83927e-07
-3.30874e-06
-1.04285e-06
-3.47995e-06
-2.99538e-06
-3.68769e-06
-4.98046e-06
-3.98227e-06
-7.01314e-06
-4.44618e-06
-9.23917e-06
-5.0281e-06
-1.20956e-05
-5.1274e-06
-1.59943e-05
-3.56078e-06
-1.90444e-05
-1.35205e-05
1.63764e-07
5.03958e-06
-7.04671e-08
9.69641e-06
-4.03951e-07
1.17973e-05
-6.55497e-07
1.26309e-05
-8.11043e-07
1.22941e-05
-9.01729e-07
1.09657e-05
-9.66913e-07
9.06149e-06
-1.03844e-06
6.96658e-06
-1.13285e-06
4.90538e-06
-1.2579e-06
2.94231e-06
-1.41616e-06
1.04219e-06
-1.60977e-06
-8.49249e-07
-1.83713e-06
-2.76802e-06
-2.09585e-06
-4.72173e-06
-2.41309e-06
-6.6959e-06
-2.8802e-06
-8.77205e-06
-3.56279e-06
-1.1413e-05
-4.02717e-06
-1.55299e-05
-3.02688e-06
-2.00447e-05
-1.65474e-05
5.02495e-07
4.53709e-06
7.00736e-07
9.49817e-06
7.44138e-07
1.17539e-05
7.79889e-07
1.25951e-05
8.24849e-07
1.22491e-05
8.53722e-07
1.09369e-05
8.46873e-07
9.06834e-06
7.9612e-07
7.01733e-06
7.02255e-07
4.99925e-06
5.66966e-07
3.0776e-06
3.85013e-07
1.22414e-06
1.50205e-07
-6.14442e-07
-1.38991e-07
-2.47882e-06
-4.89214e-07
-4.37151e-06
-9.03965e-07
-6.28115e-06
-1.42658e-06
-8.24943e-06
-2.20456e-06
-1.0635e-05
-2.95402e-06
-1.47805e-05
-2.46096e-06
-2.05377e-05
-1.90084e-05
7.59812e-07
3.77728e-06
1.35962e-06
8.89836e-06
1.75412e-06
1.13594e-05
2.08521e-06
1.2264e-05
2.35976e-06
1.19746e-05
2.54768e-06
1.0749e-05
2.6409e-06
8.97512e-06
2.65011e-06
7.00812e-06
2.58927e-06
5.06009e-06
2.46469e-06
3.20219e-06
2.26869e-06
1.42014e-06
1.98719e-06
-3.32941e-07
1.62088e-06
-2.11251e-06
1.16487e-06
-3.9155e-06
6.14958e-07
-5.73124e-06
-7.99253e-08
-7.55455e-06
-9.53672e-07
-9.76126e-06
-1.91681e-06
-1.38173e-05
-1.92413e-06
-2.05304e-05
-2.09325e-05
8.75579e-07
2.9017e-06
1.81911e-06
7.95484e-06
2.5642e-06
1.06143e-05
3.20831e-06
1.16199e-05
3.75894e-06
1.14239e-05
4.17288e-06
1.0335e-05
4.43433e-06
8.71366e-06
4.55725e-06
6.8852e-06
4.5644e-06
5.05293e-06
4.47074e-06
3.29585e-06
4.27402e-06
1.61686e-06
3.94155e-06
-4.74076e-10
3.49417e-06
-1.66512e-06
2.90624e-06
-3.32758e-06
2.17908e-06
-5.00407e-06
1.33189e-06
-6.70736e-06
2.74388e-07
-8.70376e-06
-9.53108e-07
-1.25898e-05
-1.42487e-06
-2.00586e-05
-2.23574e-05
8.1146e-07
2.09024e-06
1.96509e-06
6.8012e-06
3.01279e-06
9.56658e-06
3.99089e-06
1.06418e-05
4.8725e-06
1.05423e-05
5.59165e-06
9.61588e-06
6.10922e-06
8.19609e-06
6.42816e-06
6.56626e-06
6.56916e-06
4.91194e-06
6.54999e-06
3.31501e-06
6.36876e-06
1.79809e-06
6.02278e-06
3.45513e-07
5.47895e-06
-1.1213e-06
4.74483e-06
-2.59345e-06
3.81261e-06
-4.07185e-06
2.71137e-06
-5.60613e-06
1.4018e-06
-7.39418e-06
-1.48884e-07
-1.10391e-05
-9.09007e-07
-1.92985e-05
-2.32664e-05
5.81474e-07
1.50876e-06
1.77033e-06
5.61235e-06
3.11554e-06
8.22137e-06
4.47328e-06
9.28407e-06
5.74606e-06
9.26954e-06
6.83527e-06
8.52667e-06
7.6755e-06
7.35586e-06
8.25405e-06
5.98772e-06
8.58313e-06
4.58285e-06
8.67931e-06
3.21883e-06
8.54917e-06
1.92823e-06
8.18979e-06
7.04887e-07
7.55704e-06
-4.88536e-07
6.66837e-06
-1.70479e-06
5.51119e-06
-2.91467e-06
4.12655e-06
-4.22149e-06
2.58859e-06
-5.85623e-06
9.6915e-07
-9.4197e-06
-1.38888e-07
-1.81905e-05
-2.34053e-05
1.54344e-07
1.35442e-06
1.04873e-06
4.71796e-06
2.5336e-06
6.7365e-06
4.26375e-06
7.55392e-06
5.9938e-06
7.53949e-06
7.53598e-06
6.98448e-06
8.7876e-06
6.10425e-06
9.7188e-06
5.05652e-06
1.03246e-05
3.97706e-06
1.06162e-05
2.92718e-06
1.05997e-05
1.94481e-06
1.02803e-05
1.02422e-06
9.61182e-06
1.79976e-07
8.61682e-06
-7.09793e-07
7.28505e-06
-1.58291e-06
5.66876e-06
-2.6052e-06
3.9292e-06
-4.11667e-06
2.25076e-06
-7.74126e-06
6.56951e-07
-1.65967e-05
-2.27483e-05
-5.19161e-07
1.87358e-06
2.0374e-07
3.99506e-06
1.76795e-06
5.17229e-06
3.84158e-06
5.48029e-06
6.00738e-06
5.3737e-06
7.97829e-06
5.01358e-06
9.61768e-06
4.46486e-06
1.08839e-05
3.79028e-06
1.17595e-05
3.10153e-06
1.22603e-05
2.42629e-06
1.239e-05
1.81517e-06
1.2168e-05
1.24615e-06
1.16188e-05
7.29186e-07
1.07125e-05
1.96505e-07
9.45392e-06
-3.24291e-07
7.91682e-06
-1.0681e-06
6.28716e-06
-2.487e-06
4.46686e-06
-5.92096e-06
2.05978e-06
-1.41896e-05
-2.06885e-05
-4.18159e-06
6.05517e-06
-3.64417e-06
3.45764e-06
-1.2438e-06
2.77191e-06
1.56272e-06
2.67378e-06
4.31135e-06
2.62506e-06
6.85502e-06
2.46991e-06
9.08e-06
2.23988e-06
1.09258e-05
1.94451e-06
1.23737e-05
1.65359e-06
1.34507e-05
1.34928e-06
1.41738e-05
1.0921e-06
1.45877e-05
8.32242e-07
1.468e-05
6.36876e-07
1.44597e-05
4.16875e-07
1.39227e-05
2.12629e-07
1.30851e-05
-2.3052e-07
1.19348e-05
-1.33662e-06
1.01167e-05
-4.10292e-06
5.6396e-06
-9.71246e-06
-1.50489e-05
6.05517e-06
9.51281e-06
1.22847e-05
1.49585e-05
1.75836e-05
2.00535e-05
2.22933e-05
2.42379e-05
2.58915e-05
2.72407e-05
2.83328e-05
2.91651e-05
2.98019e-05
3.02188e-05
3.04314e-05
3.02009e-05
2.88643e-05
2.47614e-05
1.50489e-05
)
;

boundaryField
{
    movingWall
    {
        type            calculated;
        value           uniform 0;
    }
    fixedWalls
    {
        type            calculated;
        value           uniform 0;
    }
    frontAndBack
    {
        type            empty;
        value           nonuniform List<scalar> 0();
    }
}


// ************************************************************************* //
