/*--------------------------------*- C++ -*----------------------------------*\
| =========                 |                                                 |
| \\      /  F ield         | OpenFOAM: The Open Source CFD Toolbox           |
|  \\    /   O peration     | Version:  2212                                  |
|   \\  /    A nd           | Website:  www.openfoam.com                      |
|    \\/     M anipulation  |                                                 |
\*---------------------------------------------------------------------------*/
FoamFile
{
    version     2.0;
    format      ascii;
    arch        "LSB;label=32;scalar=64";
    class       volVectorField;
    location    "8.6";
    object      U;
}
// * * * * * * * * * * * * * * * * * * * * * * * * * * * * * * * * * * * * * //

dimensions      [0 1 -1 0 0 0 0];

internalField   nonuniform List<vector> 
400
(
(0.00168148 -0.00168364 0)
(0.00483781 -0.00189202 0)
(0.00658986 -0.0012006 0)
(0.00567342 -0.000575047 0)
(0.00157094 0.000184056 0)
(-0.00682991 0.00173936 0)
(-0.020608 0.004786 0)
(-0.0395395 0.00873529 0)
(-0.0608082 0.0112918 0)
(-0.0791341 0.0105121 0)
(-0.0898097 0.00677457 0)
(-0.0904613 0.00166942 0)
(-0.0802257 -0.00361576 0)
(-0.0599954 -0.00827418 0)
(-0.033524 -0.0108465 0)
(-0.00529682 -0.00979506 0)
(0.0167196 -0.00477365 0)
(0.0244676 0.00277613 0)
(0.0161775 0.00647159 0)
(0.00431634 0.00471682 0)
(0.00172003 -0.00506442 0)
(0.00316141 -0.00403155 0)
(-0.00041875 0.000588161 0)
(-0.0113312 0.00644158 0)
(-0.0314261 0.0140494 0)
(-0.0611479 0.0237724 0)
(-0.0968423 0.0330594 0)
(-0.131454 0.0370904 0)
(-0.158966 0.033516 0)
(-0.176097 0.023401 0)
(-0.181445 0.00911008 0)
(-0.175075 -0.00698839 0)
(-0.157558 -0.023172 0)
(-0.12965 -0.0369119 0)
(-0.0936149 -0.0445639 0)
(-0.0521963 -0.0418381 0)
(-0.011403 -0.0263351 0)
(0.0168866 -0.00128102 0)
(0.0178705 0.016222 0)
(0.00554195 0.014819 0)
(-0.000240026 -0.00577888 0)
(-0.00538206 0.000803164 0)
(-0.0196101 0.0142995 0)
(-0.0445036 0.0312347 0)
(-0.0803386 0.049443 0)
(-0.1222 0.0643171 0)
(-0.162343 0.070543 0)
(-0.195265 0.0660258 0)
(-0.218857 0.0521894 0)
(-0.232525 0.0315337 0)
(-0.236281 0.00641783 0)
(-0.230796 -0.0211106 0)
(-0.216383 -0.0488694 0)
(-0.192539 -0.0732232 0)
(-0.159003 -0.0890237 0)
(-0.11574 -0.0892282 0)
(-0.0645632 -0.0670295 0)
(-0.013823 -0.0226674 0)
(0.00948038 0.0179155 0)
(0.00415542 0.0235785 0)
(-0.00347205 0.000455138 0)
(-0.0175148 0.0172416 0)
(-0.0435156 0.0415 0)
(-0.0796804 0.0681923 0)
(-0.122955 0.0911571 0)
(-0.165847 0.103844 0)
(-0.201917 0.102899 0)
(-0.22924 0.0896685 0)
(-0.248078 0.0673243 0)
(-0.259032 0.0385796 0)
(-0.26294 0.00531935 0)
(-0.260608 -0.0311133 0)
(-0.251976 -0.0684501 0)
(-0.235999 -0.103738 0)
(-0.210689 -0.131486 0)
(-0.173344 -0.142888 0)
(-0.121401 -0.125764 0)
(-0.0568445 -0.0708549 0)
(-0.000987949 0.00356283 0)
(0.00474226 0.0282387 0)
(-0.00666263 0.0147844 0)
(-0.0287294 0.0441117 0)
(-0.0632888 0.0770939 0)
(-0.10446 0.108918 0)
(-0.147278 0.131207 0)
(-0.184577 0.138194 0)
(-0.212915 0.129502 0)
(-0.232698 0.108745 0)
(-0.245214 0.0797961 0)
(-0.25219 0.0454475 0)
(-0.255309 0.00724259 0)
(-0.255491 -0.0339932 0)
(-0.252513 -0.0770773 0)
(-0.245833 -0.12068 0)
(-0.232639 -0.160817 0)
(-0.208318 -0.189029 0)
(-0.166818 -0.18998 0)
(-0.103448 -0.14288 0)
(-0.022183 -0.0388565 0)
(0.00738144 0.0270989 0)
(-0.00851067 0.0348746 0)
(-0.0351769 0.0766401 0)
(-0.0730922 0.114954 0)
(-0.113264 0.147703 0)
(-0.150527 0.166035 0)
(-0.179389 0.165972 0)
(-0.198914 0.149762 0)
(-0.210659 0.122503 0)
(-0.216608 0.0885438 0)
(-0.219238 0.0508702 0)
(-0.220506 0.0109576 0)
(-0.221408 -0.0307525 0)
(-0.222141 -0.0747133 0)
(-0.222816 -0.121283 0)
(-0.221246 -0.169229 0)
(-0.212346 -0.213062 0)
(-0.188028 -0.238593 0)
(-0.139689 -0.218545 0)
(-0.0628494 -0.118945 0)
(0.00584819 0.0142016 0)
(-0.00829281 0.0570068 0)
(-0.0353421 0.110013 0)
(-0.0718377 0.150499 0)
(-0.107079 0.18119 0)
(-0.136714 0.193884 0)
(-0.15712 0.186489 0)
(-0.16903 0.163326 0)
(-0.174567 0.130543 0)
(-0.176139 0.0928988 0)
(-0.176236 0.0534085 0)
(-0.176349 0.0133164 0)
(-0.17715 -0.0273043 0)
(-0.179183 -0.0695678 0)
(-0.182994 -0.114718 0)
(-0.187946 -0.163851 0)
(-0.190419 -0.215821 0)
(-0.182533 -0.261675 0)
(-0.154285 -0.275195 0)
(-0.0994042 -0.20592 0)
(-0.00890832 -0.0146267 0)
(-0.00613576 0.077603 0)
(-0.0297938 0.140566 0)
(-0.0614301 0.181236 0)
(-0.0899018 0.208352 0)
(-0.111912 0.214942 0)
(-0.125449 0.200615 0)
(-0.132138 0.171383 0)
(-0.134288 0.134221 0)
(-0.134349 0.0941078 0)
(-0.134247 0.0537474 0)
(-0.134652 0.0138646 0)
(-0.135745 -0.0258819 0)
(-0.137979 -0.0664722 0)
(-0.142045 -0.109086 0)
(-0.148561 -0.155674 0)
(-0.156229 -0.208591 0)
(-0.159088 -0.26592 0)
(-0.146761 -0.308157 0)
(-0.112262 -0.27723 0)
(-0.0309671 -0.0753421 0)
(-0.00273019 0.0936229 0)
(-0.0204204 0.165658 0)
(-0.0451572 0.20563 0)
(-0.0663539 0.228622 0)
(-0.0816235 0.229583 0)
(-0.0901144 0.209597 0)
(-0.0937459 0.175844 0)
(-0.0946564 0.135808 0)
(-0.094932 0.0944638 0)
(-0.0957258 0.0540262 0)
(-0.0970746 0.0145941 0)
(-0.0988842 -0.0245779 0)
(-0.101321 -0.0642212 0)
(-0.10489 -0.104987 0)
(-0.110739 -0.148467 0)
(-0.119604 -0.198589 0)
(-0.12836 -0.259822 0)
(-0.126534 -0.323488 0)
(-0.107488 -0.334794 0)
(-0.0373521 -0.163452 0)
(0.00121945 0.10277 0)
(-0.00894431 0.183501 0)
(-0.0256482 0.223185 0)
(-0.0396483 0.242807 0)
(-0.0491284 0.239572 0)
(-0.0540013 0.215598 0)
(-0.0559701 0.178842 0)
(-0.0566816 0.137145 0)
(-0.057641 0.0953925 0)
(-0.0593818 0.0552638 0)
(-0.0616739 0.016309 0)
(-0.0643739 -0.0224847 0)
(-0.0674729 -0.0617249 0)
(-0.0711492 -0.101612 0)
(-0.0763351 -0.142815 0)
(-0.0846004 -0.188959 0)
(-0.0960712 -0.248386 0)
(-0.100657 -0.324354 0)
(-0.0951784 -0.372261 0)
(-0.0309248 -0.242604 0)
(0.00511855 0.103936 0)
(0.00295761 0.193102 0)
(-0.00539019 0.233681 0)
(-0.0125074 0.25084 0)
(-0.0168983 0.244755 0)
(-0.0187852 0.218537 0)
(-0.0194728 0.180475 0)
(-0.0200003 0.1384 0)
(-0.0212978 0.0969457 0)
(-0.0235331 0.0574128 0)
(-0.0264216 0.0190796 0)
(-0.0299046 -0.0191605 0)
(-0.0339987 -0.0579637 0)
(-0.0386424 -0.097382 0)
(-0.0443816 -0.137334 0)
(-0.0524433 -0.180204 0)
(-0.0657623 -0.235683 0)
(-0.0742241 -0.318131 0)
(-0.0812015 -0.396765 0)
(-0.0229428 -0.307163 0)
(0.00845759 0.0974617 0)
(0.0142211 0.194095 0)
(0.0141042 0.237204 0)
(0.01371 0.253621 0)
(0.014333 0.246541 0)
(0.0155302 0.219832 0)
(0.0163901 0.181783 0)
(0.0164441 0.140069 0)
(0.0153063 0.0991325 0)
(0.013029 0.0602119 0)
(0.00986111 0.0226227 0)
(0.0057532 -0.0147458 0)
(0.000562237 -0.0526798 0)
(-0.00556256 -0.0912763 0)
(-0.0130295 -0.130165 0)
(-0.0219766 -0.170344 0)
(-0.0377178 -0.220726 0)
(-0.0487309 -0.304491 0)
(-0.067905 -0.408509 0)
(-0.0144594 -0.360045 0)
(0.0103288 0.0844832 0)
(0.0234187 0.186499 0)
(0.0310826 0.233327 0)
(0.0370125 0.250166 0)
(0.0426745 0.243326 0)
(0.0476293 0.217541 0)
(0.0510665 0.180778 0)
(0.052742 0.140373 0)
(0.0526099 0.100614 0)
(0.05088 0.0628097 0)
(0.0477698 0.0264527 0)
(0.043162 -0.00951504 0)
(0.0368892 -0.0459858 0)
(0.0290749 -0.0831156 0)
(0.0189214 -0.120537 0)
(0.00759679 -0.158477 0)
(-0.0118173 -0.204438 0)
(-0.0242407 -0.286493 0)
(-0.0558449 -0.411016 0)
(-0.00613785 -0.401893 0)
(0.00987731 0.0672331 0)
(0.0290294 0.17069 0)
(0.0443556 0.222237 0)
(0.0568984 0.241332 0)
(0.0681925 0.236404 0)
(0.07788 0.213042 0)
(0.0851015 0.178749 0)
(0.0895561 0.140409 0)
(0.0913205 0.102251 0)
(0.0906946 0.0658187 0)
(0.0880086 0.030975 0)
(0.0829595 -0.00329766 0)
(0.0754456 -0.0375343 0)
(0.0657545 -0.072311 0)
(0.0525044 -0.107432 0)
(0.0375724 -0.142779 0)
(0.0131315 -0.184266 0)
(7.90049e-05 -0.263255 0)
(-0.0447983 -0.406717 0)
(0.00276532 -0.436271 0)
(0.0069292 0.0493966 0)
(0.0293639 0.148968 0)
(0.051113 0.203647 0)
(0.0699925 0.224565 0)
(0.0874695 0.221707 0)
(0.103165 0.201549 0)
(0.115836 0.170955 0)
(0.124801 0.136065 0)
(0.129972 0.100869 0)
(0.131592 0.0670436 0)
(0.129928 0.0348397 0)
(0.125004 0.00343264 0)
(0.116373 -0.0274591 0)
(0.104641 -0.0586938 0)
(0.0875488 -0.0903143 0)
(0.06836 -0.122931 0)
(0.0382964 -0.160851 0)
(0.023859 -0.237156 0)
(-0.0344406 -0.398965 0)
(0.0134746 -0.464431 0)
(0.00238684 0.0346275 0)
(0.0236402 0.1239 0)
(0.0509584 0.179953 0)
(0.0766918 0.202952 0)
(0.101359 0.202641 0)
(0.124243 0.186239 0)
(0.143698 0.160183 0)
(0.158508 0.129752 0)
(0.168253 0.0985605 0)
(0.173143 0.0682965 0)
(0.173118 0.0395573 0)
(0.168889 0.0119369 0)
(0.159053 -0.0149074 0)
(0.14532 -0.0417095 0)
(0.124017 -0.06875 0)
(0.100477 -0.0975506 0)
(0.0646219 -0.132706 0)
(0.0470062 -0.207455 0)
(-0.0227054 -0.387083 0)
(0.0285324 -0.485558 0)
(-0.00342597 0.0286156 0)
(0.0100714 0.101501 0)
(0.0371113 0.148698 0)
(0.0689779 0.169464 0)
(0.101874 0.170684 0)
(0.133596 0.158393 0)
(0.161595 0.137958 0)
(0.184142 0.113555 0)
(0.200192 0.0882677 0)
(0.210116 0.063627 0)
(0.213041 0.0403777 0)
(0.210787 0.0184022 0)
(0.200522 -0.00267446 0)
(0.18589 -0.0233097 0)
(0.161075 -0.0439745 0)
(0.134456 -0.0677359 0)
(0.0929248 -0.101687 0)
(0.0698747 -0.18001 0)
(-0.00436844 -0.370052 0)
(0.0521608 -0.491641 0)
(-0.0140103 0.0185193 0)
(-0.00751576 0.0881766 0)
(0.0192186 0.124194 0)
(0.0564527 0.13732 0)
(0.097608 0.136911 0)
(0.137992 0.127728 0)
(0.174247 0.113071 0)
(0.204094 0.0952924 0)
(0.22599 0.0768199 0)
(0.241084 0.0586713 0)
(0.247118 0.0417996 0)
(0.248034 0.0261065 0)
(0.238695 0.0117442 0)
(0.226878 -0.00204605 0)
(0.201879 -0.0160853 0)
(0.177895 -0.0350213 0)
(0.133548 -0.0677998 0)
(0.107837 -0.146 0)
(0.0374711 -0.326119 0)
(0.092367 -0.455871 0)
(-0.106018 0.0824194 0)
(-0.0777589 0.0689922 0)
(-0.048568 0.0733696 0)
(0.00377975 0.0778886 0)
(0.0572946 0.0782219 0)
(0.110026 0.0739575 0)
(0.157195 0.0666223 0)
(0.199558 0.0572178 0)
(0.231669 0.0475422 0)
(0.259821 0.0378861 0)
(0.275549 0.0292194 0)
(0.290704 0.0212339 0)
(0.291056 0.014477 0)
(0.295168 0.00809415 0)
(0.278866 0.00112655 0)
(0.271653 -0.010011 0)
(0.232343 -0.0355663 0)
(0.218141 -0.0954184 0)
(0.150208 -0.229723 0)
(0.170672 -0.341456 0)
(0.12997 0.103745 0)
(0.158321 0.075229 0)
(0.212167 0.053229 0)
(0.270675 0.0416239 0)
(0.323251 0.0359138 0)
(0.375692 0.0319491 0)
(0.420286 0.0289167 0)
(0.465604 0.0255811 0)
(0.498699 0.0229031 0)
(0.533948 0.0197107 0)
(0.553386 0.017548 0)
(0.579196 0.0146102 0)
(0.585334 0.0131655 0)
(0.603674 0.0103466 0)
(0.595095 0.00938436 0)
(0.603598 0.00500054 0)
(0.567791 8.98023e-05 0)
(0.547614 -0.0183156 0)
(0.435693 -0.0504144 0)
(0.336755 -0.101386 0)
)
;

boundaryField
{
    movingWall
    {
        type            fixedValue;
        value           uniform (1 0 0);
    }
    fixedWalls
    {
        type            noSlip;
    }
    frontAndBack
    {
        type            empty;
    }
}


// ************************************************************************* //
