/*--------------------------------*- C++ -*----------------------------------*\
| =========                 |                                                 |
| \\      /  F ield         | OpenFOAM: The Open Source CFD Toolbox           |
|  \\    /   O peration     | Version:  2212                                  |
|   \\  /    A nd           | Website:  www.openfoam.com                      |
|    \\/     M anipulation  |                                                 |
\*---------------------------------------------------------------------------*/
FoamFile
{
    version     2.0;
    format      ascii;
    arch        "LSB;label=32;scalar=64";
    class       surfaceScalarField;
    location    "3.8";
    object      phi;
}
// * * * * * * * * * * * * * * * * * * * * * * * * * * * * * * * * * * * * * //

dimensions      [0 3 -1 0 0 0 0];

oriented        oriented;

internalField   nonuniform List<scalar> 
760
(
1.52533e-07
-1.52534e-07
2.86047e-07
-1.33513e-07
3.00688e-07
-1.46419e-08
1.74701e-07
1.25988e-07
-1.26711e-07
3.01412e-07
-6.66128e-07
5.39417e-07
-1.47506e-06
8.08937e-07
-2.46875e-06
9.93685e-07
-3.44913e-06
9.8038e-07
-4.18588e-06
7.36754e-07
-4.51213e-06
3.26243e-07
-4.33103e-06
-1.81102e-07
-3.58438e-06
-7.46641e-07
-2.38427e-06
-1.20012e-06
-9.58162e-07
-1.4261e-06
3.22046e-07
-1.28021e-06
1.06652e-06
-7.44475e-07
1.01905e-06
4.74688e-08
4.56073e-07
5.62979e-07
4.56074e-07
1.1914e-07
-2.71674e-07
6.42195e-08
-7.85923e-08
-3.05894e-07
3.55471e-07
-1.07952e-06
8.99616e-07
-2.30133e-06
1.52322e-06
-3.89318e-06
2.13126e-06
-5.60989e-06
2.52565e-06
-7.14258e-06
2.52637e-06
-8.26737e-06
2.10518e-06
-8.87368e-06
1.34306e-06
-8.91382e-06
3.66376e-07
-8.36436e-06
-7.30563e-07
-7.25624e-06
-1.85476e-06
-5.6214e-06
-2.83496e-06
-3.60198e-06
-3.44552e-06
-1.49992e-06
-3.38227e-06
1.60578e-07
-2.40497e-06
8.44222e-07
-6.36176e-07
5.1973e-07
8.87471e-07
9.75804e-07
-1.31548e-07
-1.40126e-07
-6.3646e-07
4.26321e-07
-1.61745e-06
1.33646e-06
-3.11529e-06
2.39745e-06
-5.00811e-06
3.41604e-06
-7.00278e-06
4.12594e-06
-8.78774e-06
4.31061e-06
-1.01826e-05
3.92127e-06
-1.11346e-05
3.05712e-06
-1.16355e-05
1.84399e-06
-1.16355e-05
3.66352e-07
-1.11846e-05
-1.18148e-06
-1.02639e-05
-2.77542e-06
-8.81905e-06
-4.27981e-06
-6.82936e-06
-5.43521e-06
-4.38271e-06
-5.82893e-06
-1.87523e-06
-4.91245e-06
-9.20857e-08
-2.41932e-06
2.92026e-07
5.0336e-07
1.26783e-06
-4.97629e-07
3.57502e-07
-1.54719e-06
1.47588e-06
-3.08792e-06
2.8772e-06
-5.02584e-06
4.33537e-06
-7.10661e-06
5.4968e-06
-9.02672e-06
6.04605e-06
-1.05845e-05
5.86837e-06
-1.17357e-05
5.07245e-06
-1.25076e-05
3.82904e-06
-1.29351e-05
2.27147e-06
-1.30045e-05
4.35752e-07
-1.27715e-05
-1.41442e-06
-1.21992e-05
-3.34778e-06
-1.11854e-05
-5.29361e-06
-9.59881e-06
-7.02176e-06
-7.31497e-06
-8.11277e-06
-4.37207e-06
-7.85535e-06
-1.37398e-06
-5.41741e-06
1.18242e-07
-9.88866e-07
1.38607e-06
-8.51897e-07
1.2094e-06
-2.33334e-06
2.95732e-06
-4.18098e-06
4.72484e-06
-6.2045e-06
6.35889e-06
-8.12741e-06
7.41972e-06
-9.72833e-06
7.64696e-06
-1.0929e-05
7.069e-06
-1.17544e-05
5.89794e-06
-1.22665e-05
4.34106e-06
-1.25381e-05
2.54314e-06
-1.26596e-05
5.57218e-07
-1.26201e-05
-1.45393e-06
-1.24093e-05
-3.55851e-06
-1.19474e-05
-5.75556e-06
-1.10474e-05
-7.9218e-06
-9.42162e-06
-9.7385e-06
-6.77315e-06
-1.05038e-05
-3.20203e-06
-8.98852e-06
-2.62257e-07
-3.92864e-06
1.12381e-06
-1.07105e-06
2.28045e-06
-2.74617e-06
4.63244e-06
-4.61625e-06
6.59492e-06
-6.45345e-06
8.19609e-06
-8.03577e-06
9.00203e-06
-9.23139e-06
8.84259e-06
-1.00341e-05
7.8717e-06
-1.05079e-05
6.37173e-06
-1.07432e-05
4.57635e-06
-1.08408e-05
2.64079e-06
-1.09226e-05
6.38954e-07
-1.09789e-05
-1.3976e-06
-1.10237e-05
-3.51367e-06
-1.10266e-05
-5.75271e-06
-1.08319e-05
-8.11645e-06
-1.01114e-05
-1.0459e-05
-8.37239e-06
-1.22428e-05
-5.20395e-06
-1.2157e-05
-1.1514e-06
-7.98119e-06
-2.75836e-08
-1.09255e-06
3.373e-06
-2.71783e-06
6.25772e-06
-4.39466e-06
8.27175e-06
-5.91318e-06
9.71461e-06
-7.11404e-06
1.02029e-05
-7.93305e-06
9.6616e-06
-8.40567e-06
8.34431e-06
-8.61804e-06
6.5841e-06
-8.67433e-06
4.63264e-06
-8.67354e-06
2.64e-06
-8.7007e-06
6.66108e-07
-8.77646e-06
-1.32184e-06
-8.92008e-06
-3.37005e-06
-9.14187e-06
-5.53092e-06
-9.38226e-06
-7.87607e-06
-9.40633e-06
-1.0435e-05
-8.69358e-06
-1.29556e-05
-6.49124e-06
-1.43593e-05
-2.40395e-06
-1.20685e-05
-2.43153e-06
-9.19287e-07
4.29229e-06
-2.31124e-06
7.64968e-06
-3.68155e-06
9.64206e-06
-4.84715e-06
1.08802e-05
-5.70666e-06
1.10624e-05
-6.24126e-06
1.01962e-05
-6.50618e-06
8.60924e-06
-6.592e-06
6.66992e-06
-6.59625e-06
4.6369e-06
-6.59433e-06
2.63807e-06
-6.62463e-06
6.96406e-07
-6.70541e-06
-1.24106e-06
-6.85832e-06
-3.21714e-06
-7.11371e-06
-5.27552e-06
-7.48668e-06
-7.5031e-06
-7.8817e-06
-1.004e-05
-7.88415e-06
-1.29531e-05
-6.67677e-06
-1.55667e-05
-3.55729e-06
-1.5188e-05
-5.98882e-06
-6.12997e-07
4.90528e-06
-1.66052e-06
8.6972e-06
-2.68112e-06
1.06627e-05
-3.50986e-06
1.17089e-05
-4.09033e-06
1.16429e-05
-4.43114e-06
1.0537e-05
-4.5899e-06
8.768e-06
-4.64521e-06
6.72523e-06
-4.67085e-06
4.66254e-06
-4.71256e-06
2.67978e-06
-4.78169e-06
7.65541e-07
-4.88547e-06
-1.13728e-06
-5.03457e-06
-3.06804e-06
-5.25845e-06
-5.05165e-06
-5.61222e-06
-7.14933e-06
-6.10654e-06
-9.54564e-06
-6.51637e-06
-1.25433e-05
-6.09687e-06
-1.59862e-05
-3.90099e-06
-1.73838e-05
-9.88981e-06
-2.26919e-07
5.1322e-06
-8.77883e-07
9.34816e-06
-1.54121e-06
1.1326e-05
-2.06373e-06
1.22315e-05
-2.41679e-06
1.19959e-05
-2.62381e-06
1.0744e-05
-2.7326e-06
8.87678e-06
-2.79678e-06
6.78941e-06
-2.86225e-06
4.72801e-06
-2.95205e-06
2.76957e-06
-3.06914e-06
8.8264e-07
-3.21349e-06
-9.9294e-07
-3.38586e-06
-2.89567e-06
-3.59965e-06
-4.83786e-06
-3.90791e-06
-6.84106e-06
-4.39233e-06
-9.06122e-06
-4.99438e-06
-1.19412e-05
-5.10468e-06
-1.58759e-05
-3.54542e-06
-1.89431e-05
-1.34352e-05
1.62047e-07
4.97016e-06
-6.73441e-08
9.57755e-06
-3.96001e-07
1.16546e-05
-6.43294e-07
1.24788e-05
-7.94408e-07
1.21471e-05
-8.80093e-07
1.08297e-05
-9.4003e-07
8.93672e-06
-1.00651e-06
6.8559e-06
-1.0966e-06
4.81809e-06
-1.21791e-06
2.89089e-06
-1.37244e-06
1.03717e-06
-1.5622e-06
-8.03179e-07
-1.78635e-06
-2.67152e-06
-2.04405e-06
-4.58016e-06
-2.365e-06
-6.52011e-06
-2.84459e-06
-8.58163e-06
-3.54333e-06
-1.12425e-05
-4.01683e-06
-1.54024e-05
-3.02006e-06
-1.99399e-05
-1.64553e-05
4.93003e-07
4.47715e-06
6.88562e-07
9.382e-06
7.31121e-07
1.16121e-05
7.66822e-07
1.2443e-05
8.12558e-07
1.21013e-05
8.42406e-07
1.07999e-05
8.35897e-07
8.94323e-06
7.84459e-07
6.90733e-06
6.90098e-07
4.91245e-06
5.55188e-07
3.0258e-06
3.75662e-07
1.21669e-06
1.45375e-07
-5.72893e-07
-1.38187e-07
-2.38795e-06
-4.8155e-07
-4.2368e-06
-8.91263e-07
-6.1104e-06
-1.41574e-06
-8.05716e-06
-2.20233e-06
-1.04559e-05
-2.95697e-06
-1.46478e-05
-2.46268e-06
-2.04342e-05
-1.8918e-05
7.42875e-07
3.73428e-06
1.33256e-06
8.79231e-06
1.72057e-06
1.12241e-05
2.04685e-06
1.21168e-05
2.31812e-06
1.183e-05
2.50298e-06
1.0615e-05
2.59208e-06
8.85412e-06
2.59612e-06
6.9033e-06
2.53013e-06
4.97844e-06
2.40284e-06
3.15309e-06
2.20838e-06
1.41115e-06
1.93286e-06
-2.97379e-07
1.57491e-06
-2.03e-06
1.12943e-06
-3.79132e-06
5.90821e-07
-5.57179e-06
-9.54122e-08
-7.37092e-06
-9.70047e-07
-9.58126e-06
-1.93363e-06
-1.36842e-05
-1.9321e-06
-2.04357e-05
-2.08501e-05
8.54182e-07
2.8801e-06
1.77999e-06
7.86649e-06
2.51259e-06
1.04915e-05
3.14687e-06
1.14825e-05
3.68948e-06
1.12874e-05
4.09604e-06
1.02084e-05
4.34951e-06
8.60065e-06
4.46381e-06
6.789e-06
4.46318e-06
4.97907e-06
4.3643e-06
3.25197e-06
4.16615e-06
1.60931e-06
3.84294e-06
2.58239e-08
3.40454e-06
-1.5916e-06
2.83054e-06
-3.21732e-06
2.11988e-06
-4.86112e-06
1.28824e-06
-6.53928e-06
2.42038e-07
-8.53506e-06
-9.79885e-07
-1.24623e-05
-1.43753e-06
-1.9978e-05
-2.22876e-05
7.90245e-07
2.08985e-06
1.91932e-06
6.73741e-06
2.94851e-06
9.46231e-06
3.91163e-06
1.05194e-05
4.78043e-06
1.04186e-05
5.48798e-06
9.5009e-06
5.99419e-06
8.09444e-06
6.30188e-06
6.48131e-06
6.43316e-06
4.84779e-06
6.40804e-06
3.2771e-06
6.22715e-06
1.7902e-06
5.88329e-06
3.6969e-07
5.35179e-06
-1.06011e-06
4.6341e-06
-2.49963e-06
3.72232e-06
-3.94934e-06
2.64436e-06
-5.46132e-06
1.35549e-06
-7.24619e-06
-1.73517e-07
-1.09332e-05
-9.27304e-07
-1.92243e-05
-2.32149e-05
5.65359e-07
1.52449e-06
1.72634e-06
5.57644e-06
3.04697e-06
8.14168e-06
4.38273e-06
9.18361e-06
5.63637e-06
9.165e-06
6.70888e-06
8.42839e-06
7.53412e-06
7.26919e-06
8.09918e-06
5.91625e-06
8.41723e-06
4.52974e-06
8.50663e-06
3.1877e-06
8.37483e-06
1.92199e-06
8.02021e-06
7.24312e-07
7.39974e-06
-4.39644e-07
6.52931e-06
-1.6292e-06
5.39574e-06
-2.81577e-06
4.04021e-06
-4.1058e-06
2.52831e-06
-5.73429e-06
9.24562e-07
-9.3295e-06
-1.59498e-07
-1.81402e-05
-2.33744e-05
1.45157e-07
1.37933e-06
1.01341e-06
4.70819e-06
2.47067e-06
6.68441e-06
4.17343e-06
7.48086e-06
5.8785e-06
7.45993e-06
7.39896e-06
6.90793e-06
8.63164e-06
6.03651e-06
9.54666e-06
5.00122e-06
1.01394e-05
3.93701e-06
1.04228e-05
2.90429e-06
1.04032e-05
1.94155e-06
1.00871e-05
1.04048e-06
9.4337e-06
2.13741e-07
8.45654e-06
-6.52035e-07
7.15131e-06
-1.51054e-06
5.56763e-06
-2.52211e-06
3.8629e-06
-4.02956e-06
2.21164e-06
-7.67824e-06
6.41905e-07
-1.65705e-05
-2.27325e-05
-5.12057e-07
1.89139e-06
1.90766e-07
4.00537e-06
1.72325e-06
5.15193e-06
3.76209e-06
5.44201e-06
5.89474e-06
5.32728e-06
7.83694e-06
4.96572e-06
9.45182e-06
4.42164e-06
1.06983e-05
3.75479e-06
1.15586e-05
3.07664e-06
1.20505e-05
2.41244e-06
1.21785e-05
1.81349e-06
1.19634e-05
1.25561e-06
1.14253e-05
7.51829e-07
1.05409e-05
2.32352e-07
9.31393e-06
-2.8355e-07
7.81178e-06
-1.01996e-06
6.22049e-06
-2.43828e-06
4.43155e-06
-5.88929e-06
2.04514e-06
-1.41841e-05
-2.06874e-05
-4.17375e-06
6.06514e-06
-3.63934e-06
3.47096e-06
-1.25984e-06
2.77242e-06
1.51748e-06
2.66469e-06
4.23518e-06
2.60959e-06
6.74941e-06
2.45149e-06
8.94899e-06
2.22205e-06
1.07746e-05
1.92919e-06
1.22087e-05
1.64255e-06
1.32784e-05
1.34271e-06
1.4001e-05
1.09089e-06
1.44207e-05
8.35929e-07
1.45266e-05
6.45955e-07
1.43298e-05
4.29103e-07
1.38188e-05
2.27474e-07
1.30084e-05
-2.09553e-07
1.18909e-05
-1.32083e-06
1.00997e-05
-4.09804e-06
5.63269e-06
-9.71704e-06
-1.50547e-05
6.06514e-06
9.5361e-06
1.23085e-05
1.49732e-05
1.75828e-05
2.00343e-05
2.22563e-05
2.41855e-05
2.58281e-05
2.71708e-05
2.82617e-05
2.90976e-05
2.97436e-05
3.01727e-05
3.04001e-05
3.01906e-05
2.88698e-05
2.47717e-05
1.50547e-05
)
;

boundaryField
{
    movingWall
    {
        type            calculated;
        value           uniform 0;
    }
    fixedWalls
    {
        type            calculated;
        value           uniform 0;
    }
    frontAndBack
    {
        type            empty;
        value           nonuniform List<scalar> 0();
    }
}


// ************************************************************************* //
