/*--------------------------------*- C++ -*----------------------------------*\
| =========                 |                                                 |
| \\      /  F ield         | OpenFOAM: The Open Source CFD Toolbox           |
|  \\    /   O peration     | Version:  2212                                  |
|   \\  /    A nd           | Website:  www.openfoam.com                      |
|    \\/     M anipulation  |                                                 |
\*---------------------------------------------------------------------------*/
FoamFile
{
    version     2.0;
    format      ascii;
    arch        "LSB;label=32;scalar=64";
    class       volScalarField;
    location    "3.8";
    object      T;
}
// * * * * * * * * * * * * * * * * * * * * * * * * * * * * * * * * * * * * * //

dimensions      [0 0 0 1 0 0 0];

internalField   nonuniform List<scalar> 
400
(
0.39485
0.415894
0.457954
0.518948
0.58823
0.649104
0.690016
0.71105
0.720352
0.725629
0.729585
0.732666
0.734933
0.735957
0.734889
0.730102
0.718934
0.69733
0.665707
0.639691
0.422307
0.447644
0.497781
0.567962
0.639951
0.690845
0.714949
0.72462
0.730119
0.734304
0.738199
0.742324
0.746679
0.750533
0.752083
0.748275
0.734593
0.706971
0.670336
0.642684
0.465195
0.498552
0.559876
0.632542
0.689579
0.717113
0.725812
0.728773
0.729507
0.729966
0.732006
0.736869
0.744632
0.754706
0.764307
0.768636
0.759485
0.727766
0.679028
0.648065
0.507847
0.549696
0.617111
0.679351
0.713559
0.72176
0.719155
0.71239
0.703843
0.697358
0.695428
0.700352
0.711895
0.730346
0.752949
0.77462
0.784855
0.767283
0.708611
0.663918
0.542154
0.590114
0.656519
0.702102
0.715153
0.707724
0.692365
0.67285
0.653982
0.640209
0.634143
0.638184
0.651966
0.676514
0.710333
0.749961
0.786645
0.80269
0.766901
0.696491
0.567021
0.617621
0.678111
0.706291
0.701519
0.680171
0.651891
0.621279
0.594888
0.576383
0.567864
0.570636
0.584707
0.611068
0.649757
0.699467
0.755214
0.804443
0.817748
0.746046
0.583991
0.634106
0.686456
0.69921
0.680128
0.647081
0.608503
0.570849
0.540825
0.520843
0.511979
0.514189
0.527641
0.553164
0.591913
0.644463
0.708651
0.776586
0.829162
0.814375
0.594928
0.642456
0.686772
0.687491
0.657548
0.615461
0.569884
0.528674
0.49771
0.478169
0.469967
0.472108
0.484473
0.507757
0.543814
0.595171
0.662586
0.740573
0.813871
0.853014
0.601525
0.645358
0.682899
0.675188
0.637621
0.589342
0.539717
0.497177
0.466565
0.448102
0.440773
0.443118
0.45464
0.475633
0.507722
0.55458
0.620863
0.705392
0.791647
0.846008
0.604909
0.644691
0.677418
0.665199
0.623299
0.571315
0.519519
0.476496
0.446296
0.428512
0.421568
0.423923
0.434958
0.454635
0.483715
0.525344
0.586837
0.673766
0.773324
0.841417
0.605884
0.641722
0.671603
0.658251
0.61482
0.561304
0.508831
0.465767
0.435631
0.417782
0.410492
0.412348
0.422802
0.441674
0.468912
0.506159
0.56127
0.646366
0.755281
0.838273
0.604958
0.637144
0.665803
0.654667
0.612933
0.560136
0.508128
0.465069
0.434386
0.415681
0.407407
0.408308
0.417882
0.435922
0.461904
0.495803
0.544223
0.625091
0.741488
0.836732
0.602256
0.631334
0.659959
0.653547
0.616253
0.566252
0.51598
0.473492
0.442344
0.422609
0.413093
0.412699
0.420961
0.437615
0.461978
0.492973
0.534749
0.608752
0.729878
0.836645
0.597576
0.624155
0.65318
0.653538
0.623976
0.579705
0.533127
0.492265
0.461011
0.440145
0.429064
0.426862
0.433182
0.447606
0.469404
0.496975
0.532451
0.598694
0.722355
0.837887
0.590603
0.616004
0.645341
0.652555
0.632353
0.596198
0.55564
0.518465
0.48875
0.46784
0.455724
0.451714
0.455561
0.466763
0.484587
0.507757
0.537103
0.594049
0.717658
0.840392
0.581577
0.606309
0.635691
0.649526
0.640417
0.615334
0.583747
0.552733
0.526425
0.506637
0.493894
0.487926
0.48847
0.495189
0.50755
0.52477
0.547844
0.5945
0.716718
0.844345
0.573179
0.597536
0.625211
0.642032
0.641648
0.627853
0.607177
0.585129
0.565165
0.54911
0.537616
0.530831
0.528489
0.530535
0.537095
0.547785
0.565613
0.604229
0.723021
0.851019
0.566916
0.589589
0.616974
0.635401
0.641824
0.638203
0.628378
0.615769
0.602912
0.591387
0.581997
0.575181
0.57119
0.569987
0.572747
0.578721
0.593954
0.626384
0.736654
0.859635
0.517173
0.591103
0.604149
0.616113
0.621238
0.622441
0.620939
0.618686
0.616101
0.614605
0.613946
0.614868
0.617279
0.620936
0.627531
0.635028
0.652647
0.682468
0.770233
0.874423
0.657852
0.701491
0.726617
0.743622
0.754968
0.763553
0.769904
0.775754
0.780562
0.785726
0.790216
0.795403
0.799964
0.805375
0.810167
0.816349
0.823016
0.836293
0.860373
0.905743
)
;

boundaryField
{
    movingWall
    {
        type            fixedValue;
        value           uniform 1;
    }
    fixedWalls
    {
        type            zeroGradient;
    }
    frontAndBack
    {
        type            empty;
    }
}


// ************************************************************************* //
