/*--------------------------------*- C++ -*----------------------------------*\
| =========                 |                                                 |
| \\      /  F ield         | OpenFOAM: The Open Source CFD Toolbox           |
|  \\    /   O peration     | Version:  2212                                  |
|   \\  /    A nd           | Website:  www.openfoam.com                      |
|    \\/     M anipulation  |                                                 |
\*---------------------------------------------------------------------------*/
FoamFile
{
    version     2.0;
    format      ascii;
    arch        "LSB;label=32;scalar=64";
    class       volScalarField;
    location    "6.7";
    object      p;
}
// * * * * * * * * * * * * * * * * * * * * * * * * * * * * * * * * * * * * * //

dimensions      [0 2 -2 0 0 0 0];

internalField   nonuniform List<scalar> 
400
(
-3.40548e-07
-0.000151268
-0.000535044
-0.00107189
-0.00173221
-0.00249316
-0.00318384
-0.00359615
-0.00356385
-0.00293277
-0.00154776
0.000619324
0.00324898
0.00551394
0.00653543
0.00592739
0.00400905
0.00215789
0.00111902
0.00104971
0.000115584
-5.8712e-05
-0.000377387
-0.000764334
-0.00124401
-0.00188772
-0.00270518
-0.00354177
-0.00407773
-0.00393613
-0.00284469
-0.000823971
0.00168968
0.00396164
0.00512715
0.00474819
0.00311076
0.00138333
0.000601784
0.000692414
0.000535428
0.000264221
-7.77984e-05
-0.000559865
-0.00134703
-0.00257938
-0.00421642
-0.00597936
-0.00739675
-0.00793757
-0.0072584
-0.00545714
-0.00288775
-0.000191042
0.00179619
0.00243397
0.00171702
0.000511175
-0.000386942
-0.000384162
0.00115028
0.000739897
0.000191022
-0.000774873
-0.00244969
-0.00493397
-0.00798815
-0.0111102
-0.0136903
-0.0151624
-0.0151923
-0.0138265
-0.0112819
-0.00801906
-0.0047433
-0.00220108
-0.000861582
-0.000697239
-0.00127965
-0.00190923
0.00158047
0.000971465
-2.40358e-05
-0.00192324
-0.00500247
-0.00917127
-0.0138995
-0.0184602
-0.0221922
-0.024626
-0.0255009
-0.0246964
-0.0223397
-0.0187232
-0.0142878
-0.009642
-0.00558085
-0.00293933
-0.00218449
-0.00400835
0.00128971
0.000442292
-0.00119806
-0.00430132
-0.00899626
-0.0148647
-0.021049
-0.026684
-0.0311538
-0.0341369
-0.0355021
-0.0351474
-0.0331584
-0.0296854
-0.0248719
-0.0189394
-0.0124891
-0.00693657
-0.00439127
-0.00651333
-5.17991e-05
-0.00114974
-0.0034985
-0.00779015
-0.0139177
-0.0210899
-0.0282016
-0.0343636
-0.0390765
-0.0421743
-0.0436596
-0.0435514
-0.041918
-0.0388307
-0.0342708
-0.0281256
-0.0205156
-0.0126866
-0.00784329
-0.00773821
-0.00245249
-0.00374255
-0.00669471
-0.011902
-0.0190182
-0.0269484
-0.0344585
-0.040722
-0.0453837
-0.0484027
-0.049862
-0.0498541
-0.0484584
-0.0457246
-0.0416088
-0.035884
-0.0282935
-0.0193486
-0.0118079
-0.00797136
-0.00553706
-0.00691276
-0.0102561
-0.0160054
-0.0236297
-0.0318475
-0.0393954
-0.0455436
-0.0500564
-0.0529678
-0.0543924
-0.054433
-0.0531643
-0.0506469
-0.0468955
-0.0417586
-0.0348268
-0.025918
-0.0166898
-0.0099824
-0.00873023
-0.0100803
-0.0135864
-0.019521
-0.027252
-0.035438
-0.0428477
-0.0488305
-0.0532172
-0.0560652
-0.0574838
-0.0575552
-0.0563426
-0.05392
-0.0503738
-0.045698
-0.0395857
-0.0314879
-0.0222958
-0.0143217
-0.0114981
-0.0127498
-0.0162051
-0.0220298
-0.0295688
-0.0375348
-0.0447565
-0.0506137
-0.0549432
-0.057784
-0.0592206
-0.0593122
-0.0581089
-0.0556902
-0.0522028
-0.0477845
-0.0423784
-0.0353428
-0.0271682
-0.0191559
-0.0135419
-0.0146091
-0.0178403
-0.0232896
-0.0303914
-0.0380076
-0.0450462
-0.0508623
-0.0552274
-0.058128
-0.0596098
-0.0597122
-0.0584764
-0.0559826
-0.0524304
-0.0480698
-0.0431543
-0.0370167
-0.0300016
-0.0223918
-0.0148294
-0.0155581
-0.0183365
-0.0231854
-0.0296555
-0.036826
-0.0436959
-0.0495558
-0.0540566
-0.057092
-0.0586553
-0.0587626
-0.0574496
-0.0548195
-0.0510964
-0.0465924
-0.0419181
-0.0362655
-0.0301993
-0.022873
-0.0154601
-0.0157133
-0.0177639
-0.0217248
-0.0273566
-0.0339847
-0.0406887
-0.0466638
-0.0514028
-0.0546679
-0.0563763
-0.0565177
-0.0551026
-0.052266
-0.048275
-0.0435281
-0.0386935
-0.0331164
-0.02808
-0.0202637
-0.0155673
-0.0152909
-0.0163279
-0.0190716
-0.0236275
-0.0295964
-0.0361202
-0.0422705
-0.0473496
-0.0509517
-0.0528872
-0.0530911
-0.0516051
-0.0485177
-0.0441691
-0.0390139
-0.0337583
-0.0280599
-0.024223
-0.014381
-0.0152707
-0.0145447
-0.0142544
-0.0154163
-0.0186684
-0.0238683
-0.0301929
-0.0365632
-0.0420742
-0.0461282
-0.0484114
-0.0487891
-0.0472824
-0.0439624
-0.0392066
-0.0334945
-0.0276331
-0.0216325
-0.0180619
-0.00384288
-0.0146574
-0.0136146
-0.0117045
-0.0110784
-0.0129472
-0.0173661
-0.0235091
-0.0301333
-0.0361445
-0.0407536
-0.0435157
-0.0441991
-0.0427942
-0.0393322
-0.0341573
-0.02768
-0.0206894
-0.0132957
-0.00681213
0.0160297
-0.0145808
-0.0126556
-0.00864995
-0.00623869
-0.0069128
-0.0107427
-0.0168052
-0.0237159
-0.0302632
-0.0354947
-0.0388539
-0.0399854
-0.0388338
-0.0354153
-0.0298789
-0.0222774
-0.0128925
-0.000722168
0.0166547
0.0570304
-0.0117944
-0.0118316
-0.00573187
-0.00178488
-0.00177474
-0.00540978
-0.0115715
-0.0188002
-0.0258495
-0.0316521
-0.0356213
-0.03732
-0.0366481
-0.0333285
-0.0272132
-0.0175493
-0.00317496
0.020449
0.0606591
0.129785
-0.0295157
-0.0106321
-0.000617129
0.00306832
0.00243553
-0.00156534
-0.00799934
-0.0155424
-0.0229539
-0.0291419
-0.0334939
-0.0355487
-0.0351661
-0.0319304
-0.0252165
-0.0128662
0.00939804
0.0511337
0.122838
0.226043
)
;

boundaryField
{
    movingWall
    {
        type            zeroGradient;
    }
    fixedWalls
    {
        type            zeroGradient;
    }
    frontAndBack
    {
        type            empty;
    }
}


// ************************************************************************* //
