/*--------------------------------*- C++ -*----------------------------------*\
| =========                 |                                                 |
| \\      /  F ield         | OpenFOAM: The Open Source CFD Toolbox           |
|  \\    /   O peration     | Version:  2212                                  |
|   \\  /    A nd           | Website:  www.openfoam.com                      |
|    \\/     M anipulation  |                                                 |
\*---------------------------------------------------------------------------*/
FoamFile
{
    version     2.0;
    format      ascii;
    arch        "LSB;label=32;scalar=64";
    class       volVectorField;
    location    "6.7";
    object      U;
}
// * * * * * * * * * * * * * * * * * * * * * * * * * * * * * * * * * * * * * //

dimensions      [0 1 -1 0 0 0 0];

internalField   nonuniform List<vector> 
400
(
(0.00168064 -0.00168196 0)
(0.00483423 -0.00189033 0)
(0.00658346 -0.00119967 0)
(0.00566609 -0.000574445 0)
(0.00156421 0.000184576 0)
(-0.00683361 0.00173928 0)
(-0.0206053 0.00478379 0)
(-0.0395274 0.00873034 0)
(-0.0607866 0.0112863 0)
(-0.0791078 0.010509 0)
(-0.089785 0.00677488 0)
(-0.0904435 0.00167234 0)
(-0.0802193 -0.00361095 0)
(-0.0600015 -0.00826893 0)
(-0.0335417 -0.0108423 0)
(-0.00532186 -0.00979338 0)
(0.0166936 -0.00477715 0)
(0.024448 0.0027714 0)
(0.0161691 0.00646732 0)
(0.00431502 0.00471477 0)
(0.00171775 -0.00505863 0)
(0.00315481 -0.00402565 0)
(-0.000427724 0.000590815 0)
(-0.0113378 0.00644093 0)
(-0.0314244 0.0140445 0)
(-0.0611313 0.0237611 0)
(-0.0968084 0.0330424 0)
(-0.131406 0.0370733 0)
(-0.15891 0.0335044 0)
(-0.17604 0.0233977 0)
(-0.181392 0.00911506 0)
(-0.17503 -0.00697661 0)
(-0.157526 -0.0231552 0)
(-0.129631 -0.0368937 0)
(-0.0936109 -0.0445486 0)
(-0.052206 -0.0418302 0)
(-0.0114213 -0.0263388 0)
(0.0168661 -0.00129369 0)
(0.0178592 0.0162091 0)
(0.00554 0.0148119 0)
(-0.000242412 -0.00576884 0)
(-0.00538671 0.000812139 0)
(-0.0196122 0.0142993 0)
(-0.0444954 0.0312234 0)
(-0.0803121 0.04942 0)
(-0.122152 0.0642856 0)
(-0.162277 0.0705102 0)
(-0.195184 0.0659991 0)
(-0.218768 0.0521733 0)
(-0.232433 0.0315307 0)
(-0.236191 0.00642828 0)
(-0.230713 -0.021088 0)
(-0.21631 -0.0488378 0)
(-0.19248 -0.073188 0)
(-0.15896 -0.0889918 0)
(-0.115716 -0.0892073 0)
(-0.0645575 -0.0670262 0)
(-0.0138334 -0.022685 0)
(0.00947304 0.0178945 0)
(0.00415515 0.0235668 0)
(-0.00347213 0.000467002 0)
(-0.0175118 0.017247 0)
(-0.0435028 0.0414876 0)
(-0.0796491 0.0681615 0)
(-0.1229 0.0911124 0)
(-0.16577 0.103794 0)
(-0.201822 0.102853 0)
(-0.22913 0.0896326 0)
(-0.247959 0.067303 0)
(-0.258909 0.0385756 0)
(-0.262817 0.00533414 0)
(-0.260491 -0.0310803 0)
(-0.251868 -0.068403 0)
(-0.235905 -0.103683 0)
(-0.210611 -0.131432 0)
(-0.173286 -0.142844 0)
(-0.121367 -0.125742 0)
(-0.0568364 -0.0708601 0)
(-0.000994137 0.00353887 0)
(0.00474202 0.0282236 0)
(-0.00666011 0.014792 0)
(-0.028717 0.0441051 0)
(-0.0632592 0.0770625 0)
(-0.104407 0.108865 0)
(-0.1472 0.131141 0)
(-0.184479 0.138127 0)
(-0.2128 0.129442 0)
(-0.232569 0.108698 0)
(-0.245074 0.079767 0)
(-0.252043 0.0454399 0)
(-0.25516 0.00725902 0)
(-0.255347 -0.0339531 0)
(-0.252379 -0.0770177 0)
(-0.245713 -0.120608 0)
(-0.232536 -0.160741 0)
(-0.208235 -0.18896 0)
(-0.166758 -0.189929 0)
(-0.103416 -0.142858 0)
(-0.0221838 -0.0388728 0)
(0.00737727 0.0270805 0)
(-0.00850565 0.0348709 0)
(-0.0351566 0.0766158 0)
(-0.0730499 0.114901 0)
(-0.113196 0.147628 0)
(-0.150436 0.16595 0)
(-0.179281 0.165888 0)
(-0.198789 0.149687 0)
(-0.210519 0.122443 0)
(-0.216454 0.0885038 0)
(-0.219073 0.0508558 0)
(-0.220337 0.0109728 0)
(-0.221242 -0.0307075 0)
(-0.221986 -0.0746427 0)
(-0.222678 -0.121195 0)
(-0.221128 -0.169135 0)
(-0.212249 -0.212972 0)
(-0.187952 -0.238515 0)
(-0.139636 -0.21849 0)
(-0.0628263 -0.118927 0)
(0.00584058 0.0141877 0)
(-0.00828646 0.0569883 0)
(-0.0353176 0.109969 0)
(-0.0717895 0.150425 0)
(-0.107007 0.181094 0)
(-0.136622 0.193781 0)
(-0.157011 0.186388 0)
(-0.168904 0.163235 0)
(-0.174423 0.130466 0)
(-0.175976 0.0928446 0)
(-0.176058 0.0533844 0)
(-0.176162 0.0133293 0)
(-0.176964 -0.0272523 0)
(-0.17901 -0.0694809 0)
(-0.182841 -0.114608 0)
(-0.187818 -0.163733 0)
(-0.190317 -0.21571 0)
(-0.182453 -0.261578 0)
(-0.154223 -0.275115 0)
(-0.0993605 -0.205868 0)
(-0.00890699 -0.0146362 0)
(-0.00612984 0.0775684 0)
(-0.0297698 0.140502 0)
(-0.0613837 0.181142 0)
(-0.0898344 0.208237 0)
(-0.111827 0.214821 0)
(-0.125348 0.200497 0)
(-0.132019 0.171274 0)
(-0.134148 0.134125 0)
(-0.134187 0.0940355 0)
(-0.134067 0.0537097 0)
(-0.134461 0.0138722 0)
(-0.135553 -0.0258237 0)
(-0.137797 -0.0663673 0)
(-0.141883 -0.108948 0)
(-0.148428 -0.155524 0)
(-0.156127 -0.208451 0)
(-0.159012 -0.265801 0)
(-0.146705 -0.308059 0)
(-0.112219 -0.277154 0)
(-0.0309511 -0.0753233 0)
(-0.00272623 0.0935734 0)
(-0.020401 0.165576 0)
(-0.0451188 0.205518 0)
(-0.0662983 0.228491 0)
(-0.0815533 0.229447 0)
(-0.0900302 0.209462 0)
(-0.0936445 0.175716 0)
(-0.0945345 0.135691 0)
(-0.0947893 0.094371 0)
(-0.0955662 0.0539724 0)
(-0.0969049 0.0145937 0)
(-0.0987118 -0.0245178 0)
(-0.101155 -0.0641039 0)
(-0.104739 -0.104826 0)
(-0.110612 -0.148285 0)
(-0.119507 -0.198415 0)
(-0.128291 -0.259678 0)
(-0.126489 -0.323373 0)
(-0.107453 -0.334694 0)
(-0.0373363 -0.163385 0)
(0.00122015 0.102709 0)
(-0.00893301 0.183404 0)
(-0.0256229 0.22306 0)
(-0.0396106 0.242662 0)
(-0.0490801 0.239421 0)
(-0.0539423 0.215448 0)
(-0.0558973 0.178696 0)
(-0.0565927 0.13701 0)
(-0.0575366 0.0952815 0)
(-0.0592654 0.0551957 0)
(-0.0615501 0.0163001 0)
(-0.0642468 -0.0224268 0)
(-0.0673475 -0.0616024 0)
(-0.0710315 -0.101436 0)
(-0.0762322 -0.142608 0)
(-0.0845206 -0.188754 0)
(-0.0960163 -0.248215 0)
(-0.100628 -0.324226 0)
(-0.0951563 -0.372152 0)
(-0.0309168 -0.242515 0)
(0.0051151 0.103871 0)
(0.00295854 0.192995 0)
(-0.00538166 0.233547 0)
(-0.0124917 0.250687 0)
(-0.0168767 0.244595 0)
(-0.0187575 0.218377 0)
(-0.0194373 0.180317 0)
(-0.0199559 0.138252 0)
(-0.0212457 0.0968227 0)
(-0.0234757 0.0573343 0)
(-0.0263605 0.0190622 0)
(-0.0298404 -0.019109 0)
(-0.0339319 -0.0578443 0)
(-0.0385754 -0.0972042 0)
(-0.0443182 -0.137116 0)
(-0.0523915 -0.179977 0)
(-0.0657261 -0.235489 0)
(-0.0742108 -0.317989 0)
(-0.0811912 -0.39665 0)
(-0.0229393 -0.307063 0)
(0.00844929 0.0973998 0)
(0.0142103 0.193985 0)
(0.0140944 0.237066 0)
(0.0137011 0.253464 0)
(0.0143245 0.246376 0)
(0.0155221 0.219667 0)
(0.0163829 0.18162 0)
(0.0164378 0.139916 0)
(0.0152997 0.099004 0)
(0.0130208 0.0601276 0)
(0.00985254 0.0225984 0)
(0.00574734 -0.0147022 0)
(0.000562241 -0.0525687 0)
(-0.00555596 -0.091106 0)
(-0.0130159 -0.12995 0)
(-0.0219621 -0.17011 0)
(-0.0377067 -0.220518 0)
(-0.0487364 -0.304343 0)
(-0.067907 -0.408396 0)
(-0.0144604 -0.359944 0)
(0.0103163 0.0844329 0)
(0.0233963 0.186393 0)
(0.0310544 0.233192 0)
(0.0369794 0.250011 0)
(0.0426362 0.243162 0)
(0.0475857 0.217376 0)
(0.051017 0.180618 0)
(0.052686 0.140224 0)
(0.0525464 0.100489 0)
(0.050809 0.0627262 0)
(0.0476947 0.0264252 0)
(0.0430887 -0.0094787 0)
(0.0368234 -0.0458852 0)
(0.0290201 -0.0829576 0)
(0.0188825 -0.120334 0)
(0.00757026 -0.158248 0)
(-0.011834 -0.204226 0)
(-0.0242646 -0.286343 0)
(-0.0558571 -0.410908 0)
(-0.00614182 -0.401799 0)
(0.00986379 0.0672022 0)
(0.0289978 0.170598 0)
(0.0443114 0.222111 0)
(0.0568434 0.241185 0)
(0.0681267 0.236248 0)
(0.0778031 0.212885 0)
(0.0850127 0.178597 0)
(0.0894548 0.14027 0)
(0.0912063 0.102135 0)
(0.0905689 0.0657401 0)
(0.0878755 0.0309464 0)
(0.082827 -0.00326842 0)
(0.0753216 -0.0374469 0)
(0.0656442 -0.0721709 0)
(0.0524158 -0.107249 0)
(0.0375049 -0.142568 0)
(0.0130861 -0.184064 0)
(3.93041e-05 -0.263111 0)
(-0.0448189 -0.40662 0)
(0.00275852 -0.436191 0)
(0.00691922 0.0493879 0)
(0.0293286 0.148897 0)
(0.0510579 0.203537 0)
(0.0699208 0.224432 0)
(0.0873821 0.221564 0)
(0.103062 0.201405 0)
(0.115716 0.170817 0)
(0.124664 0.135941 0)
(0.129818 0.100768 0)
(0.131424 0.0669759 0)
(0.12975 0.0348148 0)
(0.124825 0.00345728 0)
(0.116202 -0.0273849 0)
(0.104485 -0.058574 0)
(0.0874189 -0.0901568 0)
(0.0682569 -0.122747 0)
(0.0382251 -0.160671 0)
(0.0238112 -0.237027 0)
(-0.0344664 -0.398881 0)
(0.0134643 -0.464371 0)
(0.00238296 0.0346369 0)
(0.0236097 0.123856 0)
(0.0509012 0.179867 0)
(0.0766118 0.20284 0)
(0.101257 0.202517 0)
(0.124121 0.186114 0)
(0.143555 0.160064 0)
(0.158343 0.129646 0)
(0.168069 0.0984747 0)
(0.172943 0.0682392 0)
(0.172908 0.0395352 0)
(0.168677 0.0119547 0)
(0.158848 -0.0148496 0)
(0.14513 -0.0416137 0)
(0.123856 -0.0686226 0)
(0.100347 -0.0974022 0)
(0.0645294 -0.132557 0)
(0.0469544 -0.207353 0)
(-0.0227357 -0.387028 0)
(0.0285178 -0.485521 0)
(-0.00342357 0.0286385 0)
(0.01005 0.101486 0)
(0.0370609 0.148638 0)
(0.0689012 0.169378 0)
(0.101772 0.170586 0)
(0.133468 0.158293 0)
(0.161443 0.137863 0)
(0.183965 0.113471 0)
(0.199994 0.088202 0)
(0.2099 0.0635844 0)
(0.212814 0.0403634 0)
(0.210554 0.018418 0)
(0.200298 -0.00262657 0)
(0.185682 -0.0232338 0)
(0.160896 -0.0438765 0)
(0.134312 -0.0676252 0)
(0.0928235 -0.101576 0)
(0.0698248 -0.179929 0)
(-0.0043963 -0.370018 0)
(0.052147 -0.491623 0)
(-0.0139954 0.0185415 0)
(-0.00751343 0.0881818 0)
(0.0191896 0.124166 0)
(0.0563935 0.137267 0)
(0.097517 0.136845 0)
(0.13787 0.127658 0)
(0.174094 0.113003 0)
(0.203912 0.0952323 0)
(0.225785 0.0767726 0)
(0.240859 0.0586403 0)
(0.246884 0.0417889 0)
(0.247796 0.0261163 0)
(0.238468 0.0117766 0)
(0.226665 -0.00199697 0)
(0.201697 -0.0160213 0)
(0.177752 -0.0349513 0)
(0.133449 -0.0677309 0)
(0.107787 -0.145961 0)
(0.0374489 -0.326115 0)
(0.0923579 -0.45587 0)
(-0.106008 0.082435 0)
(-0.0777489 0.069006 0)
(-0.0485697 0.0733605 0)
(0.00375559 0.0778644 0)
(0.0572421 0.0781884 0)
(0.109944 0.0739202 0)
(0.157084 0.0665861 0)
(0.199419 0.0571861 0)
(0.23151 0.0475185 0)
(0.259645 0.0378717 0)
(0.275365 0.0292165 0)
(0.290519 0.0212415 0)
(0.290882 0.0144954 0)
(0.295009 0.00811988 0)
(0.278737 0.00115943 0)
(0.271553 -0.00997874 0)
(0.232274 -0.0355386 0)
(0.218113 -0.0954067 0)
(0.150203 -0.229723 0)
(0.170671 -0.341459 0)
(0.129975 0.103749 0)
(0.158334 0.07524 0)
(0.212187 0.0532417 0)
(0.270695 0.0416341 0)
(0.323262 0.0359205 0)
(0.375688 0.0319525 0)
(0.420265 0.0289182 0)
(0.465565 0.0255817 0)
(0.498645 0.0229041 0)
(0.533882 0.0197125 0)
(0.553314 0.0175512 0)
(0.579123 0.0146148 0)
(0.585267 0.0131717 0)
(0.603617 0.0103541 0)
(0.595054 0.00939268 0)
(0.603574 0.00500793 0)
(0.567784 9.56446e-05 0)
(0.547624 -0.0183123 0)
(0.435711 -0.0504146 0)
(0.336763 -0.101388 0)
)
;

boundaryField
{
    movingWall
    {
        type            fixedValue;
        value           uniform (1 0 0);
    }
    fixedWalls
    {
        type            noSlip;
    }
    frontAndBack
    {
        type            empty;
    }
}


// ************************************************************************* //
