/*--------------------------------*- C++ -*----------------------------------*\
| =========                 |                                                 |
| \\      /  F ield         | OpenFOAM: The Open Source CFD Toolbox           |
|  \\    /   O peration     | Version:  2212                                  |
|   \\  /    A nd           | Website:  www.openfoam.com                      |
|    \\/     M anipulation  |                                                 |
\*---------------------------------------------------------------------------*/
FoamFile
{
    version     2.0;
    format      ascii;
    arch        "LSB;label=32;scalar=64";
    class       volScalarField;
    location    "6.9";
    object      p;
}
// * * * * * * * * * * * * * * * * * * * * * * * * * * * * * * * * * * * * * //

dimensions      [0 2 -2 0 0 0 0];

internalField   nonuniform List<scalar> 
400
(
-2.55742e-07
-0.000151485
-0.00053552
-0.00107259
-0.0017331
-0.00249424
-0.00318507
-0.00359749
-0.00356525
-0.00293417
-0.00154911
0.000618093
0.00324781
0.00551266
0.00653382
0.00592528
0.0040065
0.00215511
0.00111621
0.00104694
0.000115374
-5.90768e-05
-0.000377944
-0.000765055
-0.00124488
-0.00188876
-0.00270641
-0.00354318
-0.00407927
-0.00393771
-0.0028462
-0.000825378
0.00168834
0.0039602
0.0051254
0.00474598
0.00310808
0.0013805
0.000598939
0.000689631
0.00053506
0.000263735
-7.84274e-05
-0.00056064
-0.00134799
-0.0025806
-0.00421797
-0.00598125
-0.00739892
-0.00793986
-0.00726063
-0.00545925
-0.00288973
-0.000192999
0.00179407
0.00243154
0.00171424
0.00050825
-0.000389879
-0.000387019
0.00114987
0.000739396
0.000190367
-0.000775749
-0.00245091
-0.00493569
-0.00799046
-0.0111131
-0.0136937
-0.0151661
-0.0151961
-0.0138301
-0.0112852
-0.00802214
-0.00474621
-0.00220395
-0.00086449
-0.00070018
-0.00128262
-0.00191217
0.00158014
0.000971015
-2.47265e-05
-0.00192434
-0.00500423
-0.00917388
-0.0139031
-0.0184647
-0.0221975
-0.0246319
-0.0255069
-0.0247022
-0.0223451
-0.018728
-0.0142921
-0.00964574
-0.00558418
-0.00294238
-0.0021874
-0.00401141
0.00128942
0.00044183
-0.00119891
-0.00430288
-0.00899885
-0.0148685
-0.0210542
-0.0266906
-0.0311614
-0.0341452
-0.0355107
-0.0351559
-0.0331663
-0.0296924
-0.0248779
-0.0189444
-0.0124933
-0.00693999
-0.00439434
-0.00651661
-5.21935e-05
-0.00115038
-0.0034997
-0.00779238
-0.0139214
-0.0210952
-0.0282087
-0.0343724
-0.0390866
-0.0421853
-0.0436711
-0.0435627
-0.0419286
-0.0388402
-0.0342789
-0.0281323
-0.020521
-0.0126908
-0.00784669
-0.00774132
-0.0024532
-0.00374355
-0.00669647
-0.0119051
-0.019023
-0.0269553
-0.0344675
-0.040733
-0.0453964
-0.0484166
-0.0498765
-0.0498685
-0.0484719
-0.0457367
-0.0416192
-0.0358926
-0.0283003
-0.0193538
-0.0118118
-0.00797438
-0.00553828
-0.0069143
-0.0102585
-0.0160094
-0.0236357
-0.0318559
-0.0394061
-0.0455567
-0.0500715
-0.0529843
-0.0544097
-0.0544502
-0.0531805
-0.0506616
-0.0469081
-0.041769
-0.0348351
-0.0259245
-0.0166945
-0.00998592
-0.00873199
-0.0100824
-0.0135895
-0.0195258
-0.0272591
-0.0354476
-0.0428599
-0.0488453
-0.0532341
-0.0560838
-0.0575033
-0.0575747
-0.0563611
-0.0539367
-0.0503882
-0.0457099
-0.0395952
-0.0314955
-0.0223015
-0.0143262
-0.0115003
-0.0127524
-0.0162087
-0.0220352
-0.0295766
-0.0375452
-0.0447697
-0.0506295
-0.0549614
-0.0578039
-0.0592415
-0.0593331
-0.0581288
-0.0557081
-0.0522183
-0.0477973
-0.0423887
-0.0353509
-0.0271747
-0.0191613
-0.0135444
-0.014612
-0.0178442
-0.0232952
-0.0303994
-0.0380183
-0.0450597
-0.0508784
-0.0552459
-0.0581483
-0.0596311
-0.0597335
-0.0584966
-0.0560008
-0.0524461
-0.0480826
-0.0431646
-0.0370248
-0.0300081
-0.0223975
-0.014832
-0.015561
-0.0183404
-0.0231909
-0.0296632
-0.0368362
-0.0437088
-0.0495714
-0.0540745
-0.0571118
-0.058676
-0.0587832
-0.0574692
-0.0548371
-0.0511113
-0.0466045
-0.0419275
-0.0362727
-0.0302053
-0.0228783
-0.0154626
-0.015716
-0.0177675
-0.0217297
-0.0273635
-0.033994
-0.0407005
-0.0466781
-0.0514194
-0.0546862
-0.0563955
-0.0565368
-0.0551206
-0.0522819
-0.0482883
-0.0435385
-0.0387011
-0.0331221
-0.0280847
-0.0202678
-0.0155698
-0.0152934
-0.0163309
-0.0190756
-0.0236331
-0.0296041
-0.0361302
-0.0422829
-0.0473641
-0.0509678
-0.0529042
-0.053108
-0.0516209
-0.0485314
-0.0441801
-0.039022
-0.0337637
-0.0280633
-0.0242258
-0.0143831
-0.0152731
-0.0145469
-0.0142568
-0.0154192
-0.0186726
-0.0238741
-0.0302007
-0.0365732
-0.0420863
-0.0461419
-0.0484259
-0.0488035
-0.0472956
-0.0439736
-0.0392151
-0.0335
-0.0276359
-0.0216334
-0.0180619
-0.00384266
-0.0146595
-0.0136165
-0.0117062
-0.0110802
-0.0129496
-0.0173699
-0.0235146
-0.0301409
-0.0361541
-0.0407647
-0.0435277
-0.044211
-0.042805
-0.039341
-0.0341635
-0.0276831
-0.0206896
-0.0132939
-0.00680918
0.0160321
-0.0145825
-0.0126572
-0.00865106
-0.00623936
-0.0069137
-0.0107446
-0.0168088
-0.0237213
-0.0302706
-0.0355036
-0.0388637
-0.0399952
-0.0388426
-0.0354222
-0.0298832
-0.0222786
-0.0128907
-0.000717954
0.01666
0.0570346
-0.0117958
-0.0118328
-0.00573225
-0.00178458
-0.00177447
-0.00541031
-0.0115735
-0.018804
-0.0258553
-0.0316595
-0.0356296
-0.0373285
-0.0366557
-0.0333345
-0.0272165
-0.0175495
-0.00317198
0.0204545
0.0606652
0.129789
-0.0295172
-0.0106331
-0.000617088
0.00306906
0.0024363
-0.00156532
-0.00800075
-0.0155456
-0.022959
-0.0291487
-0.0335017
-0.0355567
-0.0351734
-0.0319361
-0.0252198
-0.0128666
0.00940068
0.0511386
0.122843
0.226047
)
;

boundaryField
{
    movingWall
    {
        type            zeroGradient;
    }
    fixedWalls
    {
        type            zeroGradient;
    }
    frontAndBack
    {
        type            empty;
    }
}


// ************************************************************************* //
