/*--------------------------------*- C++ -*----------------------------------*\
| =========                 |                                                 |
| \\      /  F ield         | OpenFOAM: The Open Source CFD Toolbox           |
|  \\    /   O peration     | Version:  2212                                  |
|   \\  /    A nd           | Website:  www.openfoam.com                      |
|    \\/     M anipulation  |                                                 |
\*---------------------------------------------------------------------------*/
FoamFile
{
    version     2.0;
    format      ascii;
    arch        "LSB;label=32;scalar=64";
    class       volScalarField;
    location    "6.3";
    object      p;
}
// * * * * * * * * * * * * * * * * * * * * * * * * * * * * * * * * * * * * * //

dimensions      [0 2 -2 0 0 0 0];

internalField   nonuniform List<scalar> 
400
(
-6.00562e-07
-0.000151559
-0.000535241
-0.00107194
-0.00173207
-0.00249279
-0.00318329
-0.00359551
-0.0035632
-0.0029322
-0.00154744
0.000619236
0.00324861
0.00551375
0.00653604
0.00592928
0.00401206
0.00216147
0.00112266
0.00105323
0.000115277
-5.8996e-05
-0.000377562
-0.000764406
-0.00124399
-0.00188752
-0.00270472
-0.00354098
-0.00407671
-0.0039351
-0.00284391
-0.000823604
0.00168975
0.00396185
0.00512813
0.00475036
0.00311415
0.00138709
0.000605569
0.000695992
0.000534953
0.000263866
-7.80258e-05
-0.000559964
-0.00134689
-0.00257881
-0.00421517
-0.00597733
-0.00739409
-0.00793467
-0.00725574
-0.00545494
-0.002886
-0.000189463
0.00179812
0.00243669
0.00172063
0.00051518
-0.000382889
-0.000380352
0.0011495
0.000739263
0.000190623
-0.000774902
-0.00244902
-0.00493219
-0.00798494
-0.0111055
-0.0136844
-0.0151558
-0.0151857
-0.0138204
-0.0112766
-0.00801453
-0.00473926
-0.00219717
-0.0008576
-0.000693177
-0.00127549
-0.00190519
0.00157914
0.000970418
-2.45777e-05
-0.00192284
-0.00500055
-0.00916724
-0.0138931
-0.0184513
-0.0221813
-0.0246139
-0.0254884
-0.0246844
-0.022329
-0.018714
-0.0142803
-0.00963581
-0.00557575
-0.002935
-0.00218052
-0.004004
0.001288
0.000441015
-0.0011984
-0.00429993
-0.00899228
-0.0148574
-0.0210383
-0.02667
-0.0311369
-0.0341182
-0.0354826
-0.0351285
-0.0331412
-0.0296704
-0.0248596
-0.0189296
-0.0124818
-0.00693125
-0.00438694
-0.00650845
-5.34385e-05
-0.00115079
-0.0034981
-0.00778713
-0.013911
-0.0210789
-0.0281861
-0.0343439
-0.0390532
-0.0421484
-0.0436327
-0.043525
-0.0418934
-0.0388091
-0.0342529
-0.0281114
-0.0205051
-0.0126794
-0.00783815
-0.00773384
-0.00245347
-0.00374279
-0.00669301
-0.0118968
-0.0190084
-0.0269333
-0.0344381
-0.0406965
-0.0453538
-0.0483696
-0.0498273
-0.0498198
-0.0484262
-0.0456961
-0.0415849
-0.035865
-0.0282791
-0.0193385
-0.0118016
-0.00796728
-0.00553689
-0.00691174
-0.0102527
-0.015998
-0.0236169
-0.0318287
-0.0393704
-0.0455127
-0.0500204
-0.0529278
-0.0543504
-0.0543912
-0.0531249
-0.0506117
-0.0468658
-0.0417347
-0.0348084
-0.0259048
-0.0166811
-0.009977
-0.00872874
-0.0100779
-0.0135814
-0.0195115
-0.0272367
-0.035416
-0.042819
-0.0487953
-0.0531762
-0.0560198
-0.057436
-0.0575075
-0.0562974
-0.0538795
-0.0503393
-0.0456702
-0.039564
-0.0314718
-0.0222844
-0.0143136
-0.0114955
-0.0127463
-0.0161988
-0.0220189
-0.0295518
-0.0375109
-0.0447255
-0.0505757
-0.0548991
-0.0577352
-0.0591692
-0.0592608
-0.0580601
-0.0556463
-0.0521655
-0.0477542
-0.042355
-0.035325
-0.027155
-0.0191454
-0.0135386
-0.0146049
-0.0178334
-0.0232781
-0.0303738
-0.0379832
-0.0450146
-0.0508236
-0.0551826
-0.0580784
-0.0595575
-0.0596599
-0.0584267
-0.055938
-0.0523925
-0.0480394
-0.043131
-0.0369991
-0.029988
-0.0223805
-0.014826
-0.0155539
-0.0183298
-0.0231744
-0.0296388
-0.0368026
-0.0436656
-0.0495186
-0.0540133
-0.057044
-0.0586047
-0.058712
-0.0574019
-0.0547769
-0.0510606
-0.0465643
-0.0418971
-0.0362501
-0.0301874
-0.0228628
-0.0154568
-0.0157095
-0.0177581
-0.0217153
-0.0273421
-0.0339641
-0.0406615
-0.0466301
-0.0513632
-0.0546239
-0.0563298
-0.0564712
-0.0550589
-0.0522275
-0.0482435
-0.0435044
-0.038677
-0.0331054
-0.0280713
-0.0202568
-0.0155643
-0.0152878
-0.0163236
-0.0190645
-0.0236163
-0.0295799
-0.0360977
-0.0422418
-0.0473153
-0.0509131
-0.0528464
-0.0530504
-0.0515673
-0.0484851
-0.0441436
-0.0389962
-0.0337479
-0.0280548
-0.0242192
-0.0143794
-0.0152682
-0.0145424
-0.0142518
-0.0154121
-0.0186613
-0.0238568
-0.0301759
-0.0365405
-0.0420463
-0.0460962
-0.0483772
-0.0487551
-0.0472512
-0.0439365
-0.0391879
-0.0334837
-0.0276295
-0.021634
-0.0180657
-0.00384744
-0.0146555
-0.0136132
-0.0117036
-0.0110774
-0.0129445
-0.0173599
-0.0234981
-0.030117
-0.0361231
-0.0407281
-0.0434881
-0.0441715
-0.0427693
-0.0393127
-0.034145
-0.0276757
-0.0206926
-0.0133044
-0.00682401
0.0160192
-0.0145799
-0.0126552
-0.00865083
-0.0062407
-0.00691418
-0.0107415
-0.0167998
-0.0237053
-0.0302477
-0.0354751
-0.038832
-0.0399636
-0.0388145
-0.0354009
-0.0298714
-0.0222782
-0.0129015
-0.000737457
0.0166366
0.0570153
-0.0117946
-0.0118323
-0.00573468
-0.0017895
-0.00177926
-0.00541216
-0.0115699
-0.0187937
-0.0258381
-0.0316366
-0.0356032
-0.0373016
-0.0366317
-0.0333168
-0.0272085
-0.0175529
-0.00318699
0.0204305
0.0606387
0.129768
-0.0295153
-0.0106334
-0.000621073
0.00306251
0.00242967
-0.00156919
-0.0079994
-0.0155376
-0.0229441
-0.0291279
-0.0334773
-0.0355314
-0.0351506
-0.0319192
-0.0252117
-0.0128691
0.00938695
0.0511167
0.122819
0.226029
)
;

boundaryField
{
    movingWall
    {
        type            zeroGradient;
    }
    fixedWalls
    {
        type            zeroGradient;
    }
    frontAndBack
    {
        type            empty;
    }
}


// ************************************************************************* //
