/*--------------------------------*- C++ -*----------------------------------*\
| =========                 |                                                 |
| \\      /  F ield         | OpenFOAM: The Open Source CFD Toolbox           |
|  \\    /   O peration     | Version:  2212                                  |
|   \\  /    A nd           | Website:  www.openfoam.com                      |
|    \\/     M anipulation  |                                                 |
\*---------------------------------------------------------------------------*/
FoamFile
{
    version     2.0;
    format      ascii;
    arch        "LSB;label=32;scalar=64";
    class       surfaceScalarField;
    location    "6.3";
    object      phi;
}
// * * * * * * * * * * * * * * * * * * * * * * * * * * * * * * * * * * * * * //

dimensions      [0 3 -1 0 0 0 0];

oriented        oriented;

internalField   nonuniform List<scalar> 
760
(
1.559e-07
-1.55846e-07
2.93154e-07
-1.37254e-07
3.09384e-07
-1.62317e-08
1.83077e-07
1.26306e-07
-1.20761e-07
3.03838e-07
-6.65984e-07
5.45224e-07
-1.48463e-06
8.18649e-07
-2.48941e-06
1.00478e-06
-3.47829e-06
9.88877e-07
-4.21812e-06
7.39827e-07
-4.54202e-06
3.239e-07
-4.35249e-06
-1.89529e-07
-3.59369e-06
-7.58806e-07
-2.38005e-06
-1.21363e-06
-9.42002e-07
-1.43805e-06
3.45344e-07
-1.28735e-06
1.08794e-06
-7.42601e-07
1.03198e-06
5.59677e-08
4.60627e-07
5.71347e-07
4.60626e-07
1.24662e-07
-2.80509e-07
7.38872e-08
-8.64812e-08
-2.97703e-07
3.55359e-07
-1.0791e-06
9.07699e-07
-2.31514e-06
1.53988e-06
-3.92526e-06
2.15534e-06
-5.65884e-06
2.55223e-06
-7.20264e-06
2.54857e-06
-8.3321e-06
2.11834e-06
-8.9375e-06
1.34522e-06
-8.97189e-06
3.58297e-07
-8.41275e-06
-7.48675e-07
-7.29137e-06
-1.88019e-06
-5.64113e-06
-2.86387e-06
-3.60621e-06
-3.47297e-06
-1.49157e-06
-3.40199e-06
1.76914e-07
-2.41108e-06
8.57673e-07
-6.24791e-07
5.25211e-07
9.03811e-07
9.85836e-07
-1.27913e-07
-1.52597e-07
-6.34231e-07
4.19834e-07
-1.62464e-06
1.34577e-06
-3.13995e-06
2.42301e-06
-5.05433e-06
3.45427e-06
-7.06853e-06
4.16954e-06
-8.86729e-06
4.35099e-06
-1.02706e-05
3.95189e-06
-1.12268e-05
3.07454e-06
-1.17282e-05
1.84658e-06
-1.17226e-05
3.52748e-07
-1.12644e-05
-1.20693e-06
-1.03327e-05
-2.81182e-06
-8.87348e-06
-4.32311e-06
-6.86685e-06
-5.4796e-06
-4.40211e-06
-5.86673e-06
-1.8789e-06
-4.93429e-06
-8.70822e-08
-2.41661e-06
2.94429e-07
5.223e-07
1.28026e-06
-5.00414e-07
3.47818e-07
-1.5593e-06
1.47872e-06
-3.11755e-06
2.90402e-06
-5.07768e-06
4.38314e-06
-7.17969e-06
5.55628e-06
-9.11603e-06
6.10588e-06
-1.06846e-05
5.91952e-06
-1.18428e-05
5.11008e-06
-1.26187e-05
3.85045e-06
-1.3047e-05
2.27489e-06
-1.31123e-05
4.18063e-07
-1.28734e-05
-1.44585e-06
-1.22916e-05
-3.39362e-06
-1.12651e-05
-5.34961e-06
-9.66305e-06
-7.08162e-06
-7.36083e-06
-8.16894e-06
-4.39697e-06
-7.89815e-06
-1.37804e-06
-5.43555e-06
1.20457e-07
-9.76194e-07
1.40072e-06
-8.61331e-07
1.20915e-06
-2.35987e-06
2.97726e-06
-4.22923e-06
4.77338e-06
-6.27464e-06
6.42855e-06
-8.21522e-06
7.49686e-06
-9.82843e-06
7.71908e-06
-1.10376e-05
7.12864e-06
-1.18691e-05
5.94162e-06
-1.23849e-05
4.36624e-06
-1.26577e-05
2.54766e-06
-1.27782e-05
5.38614e-07
-1.27331e-05
-1.49092e-06
-1.25135e-05
-3.61323e-06
-1.20404e-05
-5.82279e-06
-1.11273e-05
-7.99469e-06
-9.48636e-06
-9.80986e-06
-6.81826e-06
-1.05663e-05
-3.22154e-06
-9.03227e-06
-2.6139e-07
-3.93635e-06
1.13933e-06
-1.08599e-06
2.29514e-06
-2.7819e-06
4.67317e-06
-4.6738e-06
6.66528e-06
-6.52999e-06
8.28473e-06
-8.12631e-06
9.09319e-06
-9.33177e-06
8.92455e-06
-1.01423e-05
7.93914e-06
-1.06229e-05
6.42223e-06
-1.08639e-05
4.60726e-06
-1.09652e-05
2.64891e-06
-1.10481e-05
6.21554e-07
-1.10992e-05
-1.43981e-06
-1.11345e-05
-3.57791e-06
-1.1125e-05
-5.83231e-06
-1.09171e-05
-8.20263e-06
-1.01836e-05
-1.05433e-05
-8.43036e-06
-1.23195e-05
-5.24162e-06
-1.2221e-05
-1.1582e-06
-8.01976e-06
-1.88707e-08
-1.10982e-06
3.40496e-06
-2.75615e-06
6.31949e-06
-4.45231e-06
8.36145e-06
-5.98664e-06
9.81906e-06
-7.19912e-06
1.03057e-05
-8.02735e-06
9.75277e-06
-8.50896e-06
8.42075e-06
-8.73091e-06
6.64419e-06
-8.79679e-06
4.67314e-06
-8.80357e-06
2.6557e-06
-8.83367e-06
6.51654e-07
-8.90548e-06
-1.36801e-06
-9.03889e-06
-3.4445e-06
-9.2454e-06
-5.6258e-06
-9.46862e-06
-7.9794e-06
-9.47736e-06
-1.05346e-05
-8.7527e-06
-1.30442e-05
-6.53666e-06
-1.44371e-05
-2.42318e-06
-1.21332e-05
-2.44205e-06
-9.35218e-07
4.34018e-06
-2.34587e-06
7.73014e-06
-3.7322e-06
9.74778e-06
-4.91073e-06
1.09976e-05
-5.78052e-06
1.11755e-05
-6.32465e-06
1.02969e-05
-6.60019e-06
8.69629e-06
-6.69814e-06
6.74214e-06
-6.71455e-06
4.68955e-06
-6.7224e-06
2.66355e-06
-6.75737e-06
6.86624e-07
-6.83641e-06
-1.28897e-06
-6.98049e-06
-3.30041e-06
-7.22022e-06
-5.38608e-06
-7.57287e-06
-7.62675e-06
-7.94785e-06
-1.01596e-05
-7.93555e-06
-1.30564e-05
-6.71809e-06
-1.56545e-05
-3.58689e-06
-1.52644e-05
-6.02894e-06
-6.24924e-07
4.96511e-06
-1.68718e-06
8.79239e-06
-2.72011e-06
1.07807e-05
-3.55906e-06
1.18365e-05
-4.14848e-06
1.17649e-05
-4.49845e-06
1.06469e-05
-4.66781e-06
8.86565e-06
-4.73495e-06
6.80927e-06
-4.77215e-06
4.72675e-06
-4.82291e-06
2.71431e-06
-4.89722e-06
7.60933e-07
-5.0014e-06
-1.1848e-06
-5.14527e-06
-3.15653e-06
-5.35744e-06
-5.17391e-06
-5.69302e-06
-7.29118e-06
-6.16574e-06
-9.68689e-06
-6.55808e-06
-1.26641e-05
-6.12925e-06
-1.60833e-05
-3.92454e-06
-1.74692e-05
-9.95348e-06
-2.32641e-07
5.19775e-06
-8.93393e-07
9.45315e-06
-1.56502e-06
1.14523e-05
-2.09467e-06
1.23662e-05
-2.45462e-06
1.21248e-05
-2.66911e-06
1.08614e-05
-2.78631e-06
8.98285e-06
-2.85949e-06
6.88245e-06
-2.93325e-06
4.80051e-06
-3.02954e-06
2.81061e-06
-3.15114e-06
8.82523e-07
-3.29759e-06
-1.03834e-06
-3.46903e-06
-2.9851e-06
-3.67761e-06
-4.96533e-06
-3.9739e-06
-6.99488e-06
-4.44019e-06
-9.2206e-06
-5.02438e-06
-1.20799e-05
-5.12493e-06
-1.59828e-05
-3.55917e-06
-1.90349e-05
-1.35126e-05
1.6372e-07
5.03403e-06
-7.00137e-08
9.68688e-06
-4.0299e-07
1.17853e-05
-6.54043e-07
1.26172e-05
-8.09053e-07
1.22798e-05
-8.99135e-07
1.09514e-05
-9.63682e-07
9.0474e-06
-1.03459e-06
6.95335e-06
-1.12843e-06
4.89436e-06
-1.25299e-06
2.93516e-06
-1.41078e-06
1.04032e-06
-1.60396e-06
-8.45162e-07
-1.83102e-06
-2.75803e-06
-2.08976e-06
-4.70659e-06
-2.40757e-06
-6.67707e-06
-2.87619e-06
-8.75199e-06
-3.56058e-06
-1.13955e-05
-4.02598e-06
-1.55174e-05
-3.02613e-06
-2.00348e-05
-1.65388e-05
5.01792e-07
4.53223e-06
6.99881e-07
9.48879e-06
7.43239e-07
1.1742e-05
7.78994e-07
1.25815e-05
8.24008e-07
1.22348e-05
8.52931e-07
1.09225e-05
8.46062e-07
9.05427e-06
7.95187e-07
7.00423e-06
7.01242e-07
4.9883e-06
5.65986e-07
3.07042e-06
3.8429e-07
1.22201e-06
1.49965e-07
-6.10837e-07
-1.38625e-07
-2.46944e-06
-4.88135e-07
-4.35708e-06
-9.0241e-07
-6.2628e-06
-1.4253e-06
-8.2291e-06
-2.20422e-06
-1.06166e-05
-2.95422e-06
-1.47674e-05
-2.46108e-06
-2.05279e-05
-1.89999e-05
7.58455e-07
3.77378e-06
1.35745e-06
8.88979e-06
1.75136e-06
1.1348e-05
2.08191e-06
1.22509e-05
2.35601e-06
1.19607e-05
2.54344e-06
1.07351e-05
2.63605e-06
8.96166e-06
2.64454e-06
6.99573e-06
2.583e-06
5.04984e-06
2.45803e-06
3.19539e-06
2.26212e-06
1.41792e-06
1.98122e-06
-3.29943e-07
1.61586e-06
-2.10408e-06
1.16104e-06
-3.90226e-06
6.12375e-07
-5.71414e-06
-8.15465e-08
-7.53518e-06
-9.55332e-07
-9.74283e-06
-1.91847e-06
-1.38042e-05
-1.92491e-06
-2.05215e-05
-2.09248e-05
8.73818e-07
2.89996e-06
1.81586e-06
7.94775e-06
2.5598e-06
1.06041e-05
3.20288e-06
1.16079e-05
3.75252e-06
1.14111e-05
4.16545e-06
1.03222e-05
4.42579e-06
8.70132e-06
4.54751e-06
6.87401e-06
4.55358e-06
5.04377e-06
4.45919e-06
3.28978e-06
4.26231e-06
1.61479e-06
3.9305e-06
1.86732e-09
3.48424e-06
-1.65781e-06
2.89791e-06
-3.31594e-06
2.17264e-06
-4.98886e-06
1.32723e-06
-6.68977e-06
2.71046e-07
-8.68665e-06
-9.55796e-07
-1.25774e-05
-1.42613e-06
-2.00511e-05
-2.23509e-05
8.09698e-07
2.09026e-06
1.96125e-06
6.7962e-06
3.00726e-06
9.55809e-06
3.98384e-06
1.06313e-05
4.864e-06
1.05309e-05
5.58169e-06
9.60447e-06
6.09775e-06
8.18526e-06
6.41516e-06
6.5566e-06
6.5548e-06
4.90413e-06
6.53469e-06
3.3099e-06
6.35317e-06
1.79631e-06
6.00764e-06
3.47399e-07
5.46504e-06
-1.11521e-06
4.73277e-06
-2.58367e-06
3.80289e-06
-4.05898e-06
2.70429e-06
-5.59117e-06
1.39703e-06
-7.37939e-06
-1.51326e-07
-1.1029e-05
-9.10819e-07
-1.92916e-05
-2.32617e-05
5.80142e-07
1.51012e-06
1.76666e-06
5.60969e-06
3.1097e-06
8.21504e-06
4.46535e-06
9.27564e-06
5.73613e-06
9.26015e-06
6.82341e-06
8.51719e-06
7.66177e-06
7.3469e-06
8.23853e-06
5.97983e-06
8.56609e-06
4.57658e-06
8.66121e-06
3.21477e-06
8.53068e-06
1.92684e-06
8.17168e-06
7.06393e-07
7.5402e-06
-4.83735e-07
6.65355e-06
-1.69701e-06
5.49903e-06
-2.90446e-06
4.11763e-06
-4.20977e-06
2.58252e-06
-5.84429e-06
9.6476e-07
-9.41127e-06
-1.4089e-07
-1.8186e-05
-2.34026e-05
1.53593e-07
1.35653e-06
1.04583e-06
4.71746e-06
2.52833e-06
6.73253e-06
4.256e-06
7.54797e-06
5.98361e-06
7.53254e-06
7.52347e-06
6.97733e-06
8.77289e-06
6.09748e-06
9.7021e-06
5.05063e-06
1.03062e-05
3.97249e-06
1.05967e-05
2.92428e-06
1.05795e-05
1.94398e-06
1.02604e-05
1.02554e-06
9.59343e-06
1.83235e-07
8.60037e-06
-7.03953e-07
7.27149e-06
-1.57559e-06
5.6587e-06
-2.59698e-06
3.92277e-06
-4.10836e-06
2.24704e-06
-7.73554e-06
6.55537e-07
-1.65945e-05
-2.27471e-05
-5.1855e-07
1.87508e-06
2.02801e-07
3.9961e-06
1.76446e-06
5.17088e-06
3.83513e-06
5.4773e-06
5.99789e-06
5.36978e-06
7.96594e-06
5.00927e-06
9.60271e-06
4.46071e-06
1.08667e-05
3.78665e-06
1.17404e-05
3.0988e-06
1.224e-05
2.42462e-06
1.23693e-05
1.81475e-06
1.21479e-05
1.24692e-06
1.15998e-05
7.31357e-07
1.06957e-05
2.00083e-07
9.44041e-06
-3.20255e-07
7.90688e-06
-1.06345e-06
6.28099e-06
-2.48247e-06
4.46367e-06
-5.91823e-06
2.05847e-06
-1.41893e-05
-2.06886e-05
-4.18087e-06
6.05595e-06
-3.64354e-06
3.45877e-06
-1.24475e-06
2.77209e-06
1.55939e-06
2.67316e-06
4.30533e-06
2.62384e-06
6.84628e-06
2.46833e-06
9.06873e-06
2.23825e-06
1.09124e-05
1.94303e-06
1.23587e-05
1.65246e-06
1.34348e-05
1.34856e-06
1.41576e-05
1.09191e-06
1.45719e-05
8.32564e-07
1.46655e-05
6.37757e-07
1.44475e-05
4.18083e-07
1.39132e-05
2.14076e-07
1.30783e-05
-2.28544e-07
1.1931e-05
-1.3352e-06
1.01154e-05
-4.10258e-06
5.63906e-06
-9.71296e-06
-1.50495e-05
6.05595e-06
9.51472e-06
1.22868e-05
1.496e-05
1.75838e-05
2.00521e-05
2.22904e-05
2.42334e-05
2.58859e-05
2.72344e-05
2.83263e-05
2.91589e-05
2.97967e-05
3.02147e-05
3.04288e-05
3.02003e-05
2.88651e-05
2.47625e-05
1.50495e-05
)
;

boundaryField
{
    movingWall
    {
        type            calculated;
        value           uniform 0;
    }
    fixedWalls
    {
        type            calculated;
        value           uniform 0;
    }
    frontAndBack
    {
        type            empty;
        value           nonuniform List<scalar> 0();
    }
}


// ************************************************************************* //
