/*--------------------------------*- C++ -*----------------------------------*\
| =========                 |                                                 |
| \\      /  F ield         | OpenFOAM: The Open Source CFD Toolbox           |
|  \\    /   O peration     | Version:  2212                                  |
|   \\  /    A nd           | Website:  www.openfoam.com                      |
|    \\/     M anipulation  |                                                 |
\*---------------------------------------------------------------------------*/
FoamFile
{
    version     2.0;
    format      ascii;
    arch        "LSB;label=32;scalar=64";
    class       volScalarField;
    location    "6.3";
    object      T;
}
// * * * * * * * * * * * * * * * * * * * * * * * * * * * * * * * * * * * * * //

dimensions      [0 0 0 1 0 0 0];

internalField   nonuniform List<scalar> 
400
(
0.723641
0.732158
0.749262
0.774207
0.802584
0.827441
0.844087
0.852702
0.856652
0.859056
0.861089
0.863017
0.864902
0.866612
0.867746
0.867605
0.865042
0.858591
0.848657
0.84046
0.735049
0.745214
0.765479
0.794064
0.823397
0.843904
0.85322
0.856444
0.857878
0.858953
0.860376
0.86254
0.865544
0.869125
0.872356
0.873773
0.871156
0.862704
0.850661
0.841691
0.752655
0.765933
0.790536
0.819789
0.842323
0.852133
0.853575
0.852243
0.850057
0.848382
0.848422
0.851006
0.856167
0.863675
0.87198
0.878683
0.879733
0.870923
0.854363
0.843926
0.769819
0.786333
0.812958
0.837076
0.848783
0.848622
0.843057
0.835436
0.827555
0.821713
0.81952
0.822405
0.830058
0.842663
0.858437
0.874625
0.885914
0.884824
0.865518
0.849902
0.783226
0.801845
0.827188
0.843021
0.843917
0.834708
0.821127
0.805703
0.79143
0.781028
0.776342
0.778981
0.788554
0.805521
0.828474
0.854977
0.880026
0.895091
0.88679
0.861747
0.792561
0.811694
0.833381
0.840175
0.83121
0.813355
0.79148
0.768715
0.748965
0.734866
0.728207
0.730147
0.740664
0.76009
0.787709
0.821754
0.858374
0.89036
0.904113
0.87957
0.798548
0.816779
0.833658
0.832033
0.814587
0.789024
0.759993
0.731639
0.708187
0.691954
0.684317
0.685738
0.696409
0.716539
0.746083
0.784218
0.8282
0.872107
0.905181
0.904741
0.802075
0.818591
0.830768
0.822225
0.797888
0.765948
0.731438
0.699363
0.673843
0.656755
0.648879
0.65011
0.66047
0.680076
0.709338
0.74865
0.796909
0.849115
0.895012
0.91857
0.803888
0.818363
0.826529
0.812809
0.783343
0.746757
0.708601
0.674337
0.647815
0.630494
0.622628
0.623816
0.63383
0.652539
0.680284
0.718285
0.767802
0.826042
0.881501
0.914306
0.804515
0.817065
0.822472
0.80574
0.77312
0.733548
0.693119
0.657538
0.630408
0.612855
0.604806
0.6058
0.615514
0.633577
0.659822
0.695358
0.743372
0.804904
0.869643
0.91128
0.804295
0.815224
0.819075
0.801193
0.767213
0.726322
0.685014
0.648935
0.621435
0.603468
0.594884
0.595319
0.604507
0.62198
0.647044
0.679991
0.72476
0.786631
0.85843
0.909293
0.803437
0.813148
0.816692
0.79976
0.766526
0.726027
0.685012
0.648972
0.621141
0.60254
0.593129
0.592652
0.600908
0.617442
0.641271
0.671698
0.712267
0.772307
0.849604
0.908262
0.801966
0.810863
0.814949
0.800497
0.769781
0.731287
0.691862
0.656786
0.629201
0.610257
0.600072
0.598477
0.605357
0.620285
0.642244
0.669961
0.705723
0.761719
0.842509
0.908176
0.799785
0.808279
0.81358
0.803123
0.776998
0.742458
0.706145
0.673083
0.646364
0.627346
0.616402
0.613379
0.618339
0.630829
0.649945
0.674179
0.704782
0.755523
0.837954
0.908902
0.796736
0.805249
0.811705
0.805468
0.785003
0.755972
0.724426
0.694978
0.670524
0.652477
0.641404
0.637158
0.639884
0.649194
0.664351
0.684284
0.709518
0.753476
0.835454
0.910426
0.792988
0.801719
0.809533
0.80784
0.794179
0.772295
0.747155
0.722759
0.701738
0.685481
0.674651
0.669271
0.669344
0.674731
0.684968
0.699503
0.71902
0.755024
0.835274
0.912824
0.789429
0.797887
0.805652
0.806795
0.799045
0.784638
0.767035
0.749263
0.733347
0.720468
0.711113
0.70551
0.703472
0.705139
0.710511
0.719436
0.733919
0.763196
0.839866
0.916872
0.786867
0.795505
0.804129
0.807384
0.804635
0.797103
0.786806
0.775611
0.764876
0.755549
0.74802
0.742638
0.739424
0.73852
0.740541
0.745167
0.756225
0.779247
0.848736
0.922006
0.758402
0.792177
0.795218
0.797462
0.796367
0.793549
0.789638
0.785779
0.782104
0.77946
0.777603
0.776997
0.777514
0.779043
0.782552
0.786854
0.797621
0.816213
0.869749
0.930798
0.829699
0.850817
0.862531
0.870004
0.874512
0.877665
0.87973
0.881687
0.883214
0.885077
0.886708
0.888816
0.89072
0.893135
0.89537
0.898369
0.901936
0.90928
0.923422
0.948964
)
;

boundaryField
{
    movingWall
    {
        type            fixedValue;
        value           uniform 1;
    }
    fixedWalls
    {
        type            zeroGradient;
    }
    frontAndBack
    {
        type            empty;
    }
}


// ************************************************************************* //
