/*--------------------------------*- C++ -*----------------------------------*\
| =========                 |                                                 |
| \\      /  F ield         | OpenFOAM: The Open Source CFD Toolbox           |
|  \\    /   O peration     | Version:  2212                                  |
|   \\  /    A nd           | Website:  www.openfoam.com                      |
|    \\/     M anipulation  |                                                 |
\*---------------------------------------------------------------------------*/
FoamFile
{
    version     2.0;
    format      ascii;
    arch        "LSB;label=32;scalar=64";
    class       volScalarField;
    location    "16.9";
    object      T;
}
// * * * * * * * * * * * * * * * * * * * * * * * * * * * * * * * * * * * * * //

dimensions      [0 0 0 1 0 0 0];

internalField   nonuniform List<scalar> 
400
(
0.973286
0.973846
0.974981
0.976662
0.978626
0.980422
0.981716
0.982473
0.982885
0.983166
0.983421
0.983686
0.983971
0.984265
0.984524
0.984675
0.984597
0.984165
0.98345
0.982864
0.974
0.974687
0.976062
0.978031
0.980121
0.981667
0.982428
0.982695
0.982786
0.982855
0.982997
0.983268
0.983689
0.984235
0.984798
0.98521
0.985214
0.984617
0.983675
0.982997
0.975115
0.976038
0.977751
0.979816
0.981445
0.982136
0.982107
0.981768
0.981346
0.981026
0.980971
0.981294
0.981999
0.983063
0.984297
0.985418
0.985958
0.985449
0.984088
0.983245
0.976207
0.977375
0.979245
0.980919
0.981629
0.981301
0.98037
0.979187
0.978019
0.977155
0.976818
0.977192
0.97823
0.979957
0.982134
0.984425
0.986205
0.986654
0.985149
0.983823
0.977046
0.978355
0.980076
0.981001
0.98062
0.979188
0.977186
0.974982
0.972968
0.971499
0.970836
0.971195
0.972518
0.974853
0.977988
0.981584
0.985011
0.987298
0.987052
0.984894
0.977596
0.978896
0.98022
0.980227
0.978712
0.976138
0.97302
0.969818
0.967026
0.965022
0.96407
0.964345
0.965841
0.968584
0.972435
0.977105
0.982039
0.986325
0.988462
0.98646
0.977898
0.979054
0.979837
0.978911
0.976338
0.972707
0.968592
0.964572
0.961198
0.958838
0.957713
0.957912
0.959463
0.962377
0.9666
0.971956
0.977994
0.983871
0.988239
0.988708
0.978022
0.978969
0.979209
0.977464
0.973979
0.969446
0.964532
0.959921
0.95618
0.95364
0.952448
0.952617
0.954152
0.957052
0.961327
0.966959
0.973706
0.980807
0.986864
0.989909
0.978023
0.978748
0.978512
0.976112
0.971921
0.966715
0.961242
0.956249
0.952299
0.949675
0.948455
0.948611
0.950115
0.952931
0.957068
0.962625
0.969667
0.97769
0.985102
0.989361
0.977949
0.97849
0.97793
0.975121
0.970474
0.964822
0.958984
0.953746
0.949659
0.946962
0.945693
0.945814
0.947281
0.950026
0.953993
0.959282
0.966228
0.974807
0.983508
0.988945
0.977826
0.97824
0.9775
0.974496
0.96963
0.963775
0.957783
0.952441
0.948273
0.945493
0.944132
0.944164
0.945556
0.948223
0.952039
0.957003
0.963579
0.972309
0.982026
0.98868
0.977668
0.978025
0.97728
0.974348
0.969544
0.96373
0.957769
0.952424
0.948203
0.945325
0.943835
0.943726
0.944974
0.947498
0.951131
0.955747
0.96178
0.970335
0.980839
0.988534
0.977472
0.977831
0.977197
0.974527
0.970017
0.96448
0.958755
0.953568
0.949403
0.946487
0.944888
0.944608
0.945642
0.947913
0.951255
0.955466
0.960837
0.968891
0.979903
0.988518
0.977225
0.977644
0.977243
0.975048
0.9711
0.966101
0.960834
0.955969
0.951969
0.949072
0.947376
0.946885
0.947619
0.949507
0.952403
0.956079
0.960703
0.968052
0.979299
0.988607
0.976903
0.977411
0.97724
0.975564
0.972316
0.96806
0.963484
0.95918
0.955557
0.952845
0.951157
0.950492
0.950884
0.95228
0.954563
0.95758
0.961406
0.967811
0.978985
0.988803
0.976521
0.977143
0.97727
0.976201
0.973804
0.970484
0.966798
0.963235
0.960148
0.957738
0.956117
0.955302
0.955303
0.956108
0.957647
0.959848
0.962808
0.968072
0.978976
0.989111
0.97614
0.976753
0.976977
0.976347
0.974736
0.972408
0.969752
0.967127
0.964787
0.962891
0.961509
0.960681
0.960382
0.960642
0.961458
0.96282
0.965
0.969264
0.979614
0.989637
0.975872
0.976617
0.97707
0.976813
0.975903
0.974497
0.972824
0.971101
0.969488
0.968106
0.966997
0.966213
0.965749
0.965634
0.965941
0.966642
0.968244
0.971519
0.980805
0.990299
0.97223
0.975802
0.975787
0.975655
0.975165
0.974513
0.973769
0.973078
0.972443
0.971975
0.971632
0.971475
0.971483
0.971643
0.972077
0.972634
0.974062
0.976548
0.983589
0.991433
0.980496
0.982853
0.984114
0.984869
0.985272
0.985524
0.985655
0.985789
0.985883
0.986031
0.986162
0.986361
0.986547
0.986799
0.987043
0.987381
0.987813
0.988726
0.990547
0.993753
)
;

boundaryField
{
    movingWall
    {
        type            fixedValue;
        value           uniform 1;
    }
    fixedWalls
    {
        type            zeroGradient;
    }
    frontAndBack
    {
        type            empty;
    }
}


// ************************************************************************* //
