/*--------------------------------*- C++ -*----------------------------------*\
| =========                 |                                                 |
| \\      /  F ield         | OpenFOAM: The Open Source CFD Toolbox           |
|  \\    /   O peration     | Version:  2212                                  |
|   \\  /    A nd           | Website:  www.openfoam.com                      |
|    \\/     M anipulation  |                                                 |
\*---------------------------------------------------------------------------*/
FoamFile
{
    version     2.0;
    format      ascii;
    arch        "LSB;label=32;scalar=64";
    class       volScalarField;
    location    "7.4";
    object      p;
}
// * * * * * * * * * * * * * * * * * * * * * * * * * * * * * * * * * * * * * //

dimensions      [0 2 -2 0 0 0 0];

internalField   nonuniform List<scalar> 
400
(
4.97238e-07
-0.000150404
-0.000534326
-0.00107135
-0.00173186
-0.00249307
-0.00318398
-0.00359641
-0.00356415
-0.00293297
-0.0015477
0.000619813
0.00324975
0.0055145
0.00653514
0.00592575
0.00400623
0.00215446
0.0011155
0.0010463
0.000116472
-5.78798e-05
-0.000376689
-0.000763746
-0.00124355
-0.00188747
-0.00270526
-0.0035422
-0.00407842
-0.00393681
-0.0028451
-0.000823962
0.00168999
0.00396176
0.00512647
0.00474626
0.00310757
0.00137976
0.000598185
0.000688975
0.000536457
0.000265125
-7.70274e-05
-0.000559241
-0.00134668
-0.00257956
-0.00421734
-0.00598111
-0.00739918
-0.00794023
-0.0072608
-0.00545908
-0.00288922
-0.000192354
0.0017945
0.00243144
0.00171355
0.000507312
-0.000390824
-0.000387818
0.00115164
0.00074111
0.000191982
-0.000774333
-0.00244993
-0.00493543
-0.00799116
-0.0111148
-0.0136962
-0.0151691
-0.0151989
-0.0138325
-0.0112872
-0.00802349
-0.00474721
-0.00220485
-0.000865427
-0.000701166
-0.00128366
-0.00191312
0.00158241
0.000973122
-2.29333e-05
-0.00192316
-0.00500407
-0.00917514
-0.013906
-0.0184692
-0.0222033
-0.0246385
-0.0255138
-0.0247087
-0.0223507
-0.0187325
-0.0142955
-0.00964819
-0.00558587
-0.00294355
-0.00218832
-0.00401258
0.00129204
0.000444176
-0.00119719
-0.00430233
-0.00900007
-0.014872
-0.02106
-0.0266986
-0.0311713
-0.0341564
-0.0355224
-0.0351671
-0.0331764
-0.0297008
-0.0248846
-0.0189493
-0.0124965
-0.00694184
-0.00439551
-0.00651816
-4.95559e-05
-0.00114814
-0.00349845
-0.00779291
-0.0139244
-0.0211013
-0.0282178
-0.0343843
-0.039101
-0.0422014
-0.0436879
-0.0435791
-0.0419436
-0.0388531
-0.0342895
-0.0281402
-0.0205264
-0.012694
-0.00784842
-0.00774252
-0.00245097
-0.00374183
-0.00669608
-0.011907
-0.0190282
-0.026964
-0.03448
-0.0407489
-0.0454154
-0.0484377
-0.0498986
-0.0498904
-0.0484922
-0.0457546
-0.0416339
-0.0359039
-0.0283083
-0.0193589
-0.0118144
-0.00797538
-0.0055368
-0.00691341
-0.0102592
-0.0160129
-0.0236429
-0.0318672
-0.0394217
-0.0455763
-0.0500947
-0.0530102
-0.0544369
-0.0544773
-0.0532059
-0.050684
-0.0469268
-0.0417836
-0.0348459
-0.0259317
-0.0166986
-0.0099878
-0.00873139
-0.0100825
-0.0135913
-0.0195307
-0.0272681
-0.0354611
-0.0428781
-0.048868
-0.0532608
-0.0561135
-0.0575346
-0.057606
-0.0563906
-0.053963
-0.0504102
-0.0457273
-0.0396083
-0.0315047
-0.0223075
-0.0143299
-0.0115004
-0.0127532
-0.0162114
-0.0220411
-0.0295867
-0.0375601
-0.0447895
-0.0506541
-0.0549902
-0.057836
-0.0592753
-0.0593669
-0.0581608
-0.0557367
-0.0522423
-0.0478163
-0.042403
-0.0353613
-0.0271819
-0.0191666
-0.0135449
-0.0146131
-0.0178472
-0.0233015
-0.0304098
-0.0380335
-0.0450799
-0.0509035
-0.0552753
-0.0581811
-0.0596656
-0.059768
-0.0585292
-0.0560299
-0.0524704
-0.0481018
-0.0431788
-0.0370351
-0.0300155
-0.0224034
-0.0148327
-0.0155622
-0.0183433
-0.0231967
-0.0296731
-0.0368507
-0.0437282
-0.0495955
-0.0541029
-0.0571434
-0.0587094
-0.0588166
-0.0575006
-0.0548648
-0.0511343
-0.0466221
-0.0419401
-0.0362814
-0.0302115
-0.0228834
-0.0154632
-0.0157169
-0.0177697
-0.0217345
-0.0273718
-0.0340065
-0.0407176
-0.0466998
-0.0514451
-0.0547151
-0.0564262
-0.0565673
-0.0551491
-0.0523068
-0.0483083
-0.0435531
-0.0387106
-0.0331278
-0.0280888
-0.0202706
-0.0155701
-0.0152938
-0.0163322
-0.0190787
-0.0236391
-0.0296138
-0.0361441
-0.042301
-0.0473862
-0.0509929
-0.0529309
-0.0531345
-0.0516454
-0.0485522
-0.0441959
-0.0390323
-0.0337689
-0.0280649
-0.0242265
-0.0143823
-0.015273
-0.0145467
-0.0142568
-0.0154203
-0.0186757
-0.0238803
-0.0302106
-0.0365872
-0.0421039
-0.0461624
-0.048448
-0.0488253
-0.0473155
-0.0439896
-0.0392261
-0.0335055
-0.0276364
-0.0216304
-0.0180573
-0.00383756
-0.014659
-0.0136157
-0.011705
-0.0110791
-0.0129497
-0.0173723
-0.0235204
-0.0301504
-0.0361672
-0.0407806
-0.0435451
-0.0442283
-0.0428204
-0.0393526
-0.03417
-0.027684
-0.0206854
-0.0132858
-0.00679902
0.0160413
-0.0145813
-0.0126557
-0.00864862
-0.00623614
-0.00691091
-0.0107436
-0.0168107
-0.0237268
-0.0302795
-0.0355154
-0.038877
-0.0400085
-0.038854
-0.0354303
-0.0298864
-0.0222761
-0.0128825
-0.000705423
0.0166745
0.0570469
-0.0117939
-0.0118305
-0.00572849
-0.00177957
-0.00176951
-0.00540681
-0.0115727
-0.0188067
-0.0258614
-0.0316684
-0.0356402
-0.0373394
-0.0366652
-0.0333407
-0.0272178
-0.017545
-0.00316166
0.0204692
0.0606812
0.129803
-0.0295156
-0.0106303
-0.000612559
0.00307488
0.00244217
-0.00156081
-0.00799885
-0.0155471
-0.0229639
-0.0291565
-0.0335114
-0.0355668
-0.0351821
-0.0319418
-0.0252212
-0.0128626
0.00941033
0.0511523
0.122857
0.22606
)
;

boundaryField
{
    movingWall
    {
        type            zeroGradient;
    }
    fixedWalls
    {
        type            zeroGradient;
    }
    frontAndBack
    {
        type            empty;
    }
}


// ************************************************************************* //
