/*--------------------------------*- C++ -*----------------------------------*\
| =========                 |                                                 |
| \\      /  F ield         | OpenFOAM: The Open Source CFD Toolbox           |
|  \\    /   O peration     | Version:  2212                                  |
|   \\  /    A nd           | Website:  www.openfoam.com                      |
|    \\/     M anipulation  |                                                 |
\*---------------------------------------------------------------------------*/
FoamFile
{
    version     2.0;
    format      ascii;
    arch        "LSB;label=32;scalar=64";
    class       volVectorField;
    location    "7.4";
    object      U;
}
// * * * * * * * * * * * * * * * * * * * * * * * * * * * * * * * * * * * * * //

dimensions      [0 1 -1 0 0 0 0];

internalField   nonuniform List<vector> 
400
(
(0.00168098 -0.00168309 0)
(0.00483608 -0.00189137 0)
(0.00658705 -0.00120023 0)
(0.00567024 -0.00057481 0)
(0.00156803 0.000184266 0)
(-0.00683153 0.00173932 0)
(-0.0206069 0.00478507 0)
(-0.0395344 0.00873321 0)
(-0.0607992 0.0112895 0)
(-0.079123 0.0105108 0)
(-0.0897993 0.00677471 0)
(-0.0904538 0.00167067 0)
(-0.0802231 -0.00361371 0)
(-0.0599981 -0.00827195 0)
(-0.0335317 -0.0108448 0)
(-0.00530755 -0.00979436 0)
(0.0167085 -0.00477515 0)
(0.0244593 0.00277411 0)
(0.0161739 0.00646977 0)
(0.00431579 0.00471595 0)
(0.00171902 -0.00506222 0)
(0.00315852 -0.00402918 0)
(-0.000422637 0.000589219 0)
(-0.0113341 0.00644128 0)
(-0.0314255 0.0140473 0)
(-0.061141 0.0237676 0)
(-0.0968281 0.0330522 0)
(-0.131433 0.0370832 0)
(-0.158942 0.033511 0)
(-0.176073 0.0233996 0)
(-0.181423 0.00911219 0)
(-0.175056 -0.00698338 0)
(-0.157545 -0.0231648 0)
(-0.129642 -0.0369041 0)
(-0.0936133 -0.0445574 0)
(-0.0522006 -0.0418348 0)
(-0.0114109 -0.0263367 0)
(0.0168778 -0.00128644 0)
(0.0178657 0.0162165 0)
(0.00554113 0.014816 0)
(-0.000241061 -0.00577477 0)
(-0.0053841 0.000806857 0)
(-0.0196111 0.0142993 0)
(-0.0445003 0.0312299 0)
(-0.0803275 0.0494333 0)
(-0.12218 0.0643038 0)
(-0.162315 0.0705291 0)
(-0.195231 0.0660145 0)
(-0.218819 0.0521825 0)
(-0.232486 0.0315324 0)
(-0.236243 0.00642224 0)
(-0.230761 -0.021101 0)
(-0.216352 -0.048856 0)
(-0.192514 -0.0732083 0)
(-0.158985 -0.0890102 0)
(-0.11573 -0.0892194 0)
(-0.0645609 -0.0670282 0)
(-0.0138275 -0.022675 0)
(0.00947724 0.0179066 0)
(0.00415531 0.0235735 0)
(-0.00347211 0.000460067 0)
(-0.0175136 0.0172438 0)
(-0.0435103 0.0414948 0)
(-0.0796673 0.0681792 0)
(-0.122932 0.0911382 0)
(-0.165814 0.103823 0)
(-0.201877 0.10288 0)
(-0.229193 0.0896532 0)
(-0.248028 0.0673152 0)
(-0.25898 0.0385778 0)
(-0.262888 0.00532559 0)
(-0.260558 -0.0310993 0)
(-0.25193 -0.0684301 0)
(-0.235959 -0.103715 0)
(-0.210656 -0.131463 0)
(-0.173319 -0.142869 0)
(-0.121386 -0.125755 0)
(-0.0568411 -0.0708572 0)
(-0.000990609 0.00355259 0)
(0.00474216 0.0282322 0)
(-0.00666158 0.0147876 0)
(-0.0287242 0.0441089 0)
(-0.0632764 0.0770806 0)
(-0.104437 0.108896 0)
(-0.147245 0.131179 0)
(-0.184536 0.138166 0)
(-0.212866 0.129476 0)
(-0.232643 0.108725 0)
(-0.245155 0.0797836 0)
(-0.252127 0.0454442 0)
(-0.255246 0.0072495 0)
(-0.25543 -0.0339762 0)
(-0.252456 -0.0770519 0)
(-0.245781 -0.120649 0)
(-0.232595 -0.160785 0)
(-0.208282 -0.188999 0)
(-0.166792 -0.189959 0)
(-0.103434 -0.142871 0)
(-0.0221834 -0.0388635 0)
(0.00737966 0.027091 0)
(-0.00850856 0.0348731 0)
(-0.0351684 0.0766299 0)
(-0.0730743 0.114931 0)
(-0.113235 0.147671 0)
(-0.150488 0.165999 0)
(-0.179343 0.165936 0)
(-0.198861 0.14973 0)
(-0.210599 0.122478 0)
(-0.216542 0.0885266 0)
(-0.219167 0.0508639 0)
(-0.220434 0.0109639 0)
(-0.221337 -0.0307334 0)
(-0.222075 -0.0746832 0)
(-0.222757 -0.121245 0)
(-0.221196 -0.169189 0)
(-0.212304 -0.213024 0)
(-0.187996 -0.23856 0)
(-0.139666 -0.218522 0)
(-0.0628396 -0.118937 0)
(0.00584493 0.0141957 0)
(-0.00829012 0.056999 0)
(-0.0353318 0.109995 0)
(-0.0718173 0.150467 0)
(-0.107048 0.18115 0)
(-0.136675 0.19384 0)
(-0.157074 0.186446 0)
(-0.168977 0.163287 0)
(-0.174506 0.13051 0)
(-0.176069 0.0928754 0)
(-0.17616 0.053398 0)
(-0.176269 0.0133218 0)
(-0.17707 -0.0272822 0)
(-0.179109 -0.0695307 0)
(-0.182929 -0.114671 0)
(-0.187891 -0.163801 0)
(-0.190375 -0.215774 0)
(-0.182499 -0.261634 0)
(-0.154259 -0.275161 0)
(-0.0993855 -0.205898 0)
(-0.00890777 -0.0146308 0)
(-0.00613325 0.0775883 0)
(-0.0297836 0.140539 0)
(-0.0614104 0.181197 0)
(-0.0898732 0.208303 0)
(-0.111876 0.21489 0)
(-0.125406 0.200565 0)
(-0.132087 0.171336 0)
(-0.134229 0.13418 0)
(-0.134279 0.0940766 0)
(-0.13417 0.0537311 0)
(-0.134571 0.0138677 0)
(-0.135663 -0.0258571 0)
(-0.137901 -0.0664274 0)
(-0.141976 -0.109027 0)
(-0.148504 -0.15561 0)
(-0.156186 -0.208531 0)
(-0.159055 -0.265869 0)
(-0.146737 -0.308116 0)
(-0.112244 -0.277198 0)
(-0.0309602 -0.0753342 0)
(-0.0027285 0.0936019 0)
(-0.0204122 0.165624 0)
(-0.0451409 0.205582 0)
(-0.0663303 0.228566 0)
(-0.0815936 0.229525 0)
(-0.0900785 0.209539 0)
(-0.0937026 0.175789 0)
(-0.0946043 0.135758 0)
(-0.094871 0.0944238 0)
(-0.0956576 0.054003 0)
(-0.097002 0.0145937 0)
(-0.0988105 -0.0245523 0)
(-0.10125 -0.0641711 0)
(-0.104825 -0.104918 0)
(-0.110685 -0.148389 0)
(-0.119562 -0.198515 0)
(-0.12833 -0.25976 0)
(-0.126515 -0.323439 0)
(-0.107473 -0.334751 0)
(-0.0373453 -0.163423 0)
(0.00121976 0.102744 0)
(-0.0089395 0.18346 0)
(-0.0256374 0.223132 0)
(-0.0396323 0.242745 0)
(-0.0491078 0.239508 0)
(-0.0539761 0.215534 0)
(-0.055939 0.178779 0)
(-0.0566437 0.137087 0)
(-0.0575964 0.0953448 0)
(-0.0593322 0.0552344 0)
(-0.0616211 0.016305 0)
(-0.0643197 -0.0224601 0)
(-0.0674194 -0.0616726 0)
(-0.0710989 -0.101537 0)
(-0.0762911 -0.142727 0)
(-0.0845663 -0.188872 0)
(-0.0960477 -0.248313 0)
(-0.100645 -0.324299 0)
(-0.0951689 -0.372214 0)
(-0.0309214 -0.242566 0)
(0.00511709 0.103908 0)
(0.00295802 0.193056 0)
(-0.00538656 0.233624 0)
(-0.0125007 0.250775 0)
(-0.0168891 0.244686 0)
(-0.0187734 0.218469 0)
(-0.0194577 0.180408 0)
(-0.0199814 0.138336 0)
(-0.0212756 0.0968929 0)
(-0.0235087 0.057379 0)
(-0.0263956 0.019072 0)
(-0.0298773 -0.0191386 0)
(-0.0339703 -0.0579127 0)
(-0.0386139 -0.0973061 0)
(-0.0443545 -0.137241 0)
(-0.0524212 -0.180107 0)
(-0.0657468 -0.2356 0)
(-0.0742184 -0.31807 0)
(-0.0811971 -0.396716 0)
(-0.0229413 -0.30712 0)
(0.00845407 0.0974354 0)
(0.0142165 0.194048 0)
(0.0141 0.237145 0)
(0.0137062 0.253554 0)
(0.0143294 0.24647 0)
(0.0155267 0.219762 0)
(0.0163869 0.181713 0)
(0.0164413 0.140004 0)
(0.0153033 0.0990774 0)
(0.0130253 0.0601757 0)
(0.00985725 0.0226121 0)
(0.00575051 -0.0147273 0)
(0.000562071 -0.0526324 0)
(-0.00555987 -0.0912036 0)
(-0.0130238 -0.130073 0)
(-0.0219705 -0.170244 0)
(-0.0377131 -0.220637 0)
(-0.0487332 -0.304428 0)
(-0.0679059 -0.408461 0)
(-0.0144598 -0.360002 0)
(0.0103235 0.0844618 0)
(0.0234092 0.186454 0)
(0.0310706 0.23327 0)
(0.0369984 0.2501 0)
(0.0426582 0.243256 0)
(0.0476107 0.217471 0)
(0.0510453 0.180709 0)
(0.0527179 0.140309 0)
(0.0525826 0.10056 0)
(0.0508495 0.0627739 0)
(0.0477375 0.0264408 0)
(0.0431305 -0.00949963 0)
(0.0368609 -0.0459429 0)
(0.0290514 -0.0830482 0)
(0.0189047 -0.12045 0)
(0.00758538 -0.158379 0)
(-0.0118245 -0.204347 0)
(-0.0242509 -0.286429 0)
(-0.0558502 -0.41097 0)
(-0.00613954 -0.401853 0)
(0.00987157 0.06722 0)
(0.029016 0.170651 0)
(0.0443368 0.222183 0)
(0.056875 0.24127 0)
(0.0681645 0.236338 0)
(0.0778472 0.212975 0)
(0.0850636 0.178684 0)
(0.0895128 0.14035 0)
(0.0912716 0.102201 0)
(0.0906408 0.065785 0)
(0.0879516 0.0309627 0)
(0.0829027 -0.00328528 0)
(0.0753925 -0.0374971 0)
(0.0657073 -0.0722512 0)
(0.0524665 -0.107354 0)
(0.0375435 -0.142689 0)
(0.0131121 -0.18418 0)
(6.20402e-05 -0.263193 0)
(-0.0448071 -0.406676 0)
(0.00276242 -0.436237 0)
(0.00692496 0.0493929 0)
(0.0293489 0.148938 0)
(0.0510896 0.2036 0)
(0.069962 0.224509 0)
(0.0874323 0.221647 0)
(0.103121 0.201488 0)
(0.115784 0.170896 0)
(0.124742 0.136012 0)
(0.129906 0.100826 0)
(0.131521 0.0670145 0)
(0.129852 0.0348289 0)
(0.124927 0.00344306 0)
(0.1163 -0.0274275 0)
(0.104575 -0.0586427 0)
(0.0874933 -0.0902471 0)
(0.0683159 -0.122852 0)
(0.0382659 -0.160774 0)
(0.0238386 -0.237101 0)
(-0.0344516 -0.398929 0)
(0.0134702 -0.464405 0)
(0.00238519 0.0346315 0)
(0.0236273 0.123882 0)
(0.0509341 0.179916 0)
(0.0766578 0.202905 0)
(0.101316 0.202588 0)
(0.124191 0.186186 0)
(0.143637 0.160132 0)
(0.158437 0.129707 0)
(0.168175 0.0985238 0)
(0.173058 0.068272 0)
(0.173028 0.0395478 0)
(0.168798 0.0119444 0)
(0.158965 -0.0148828 0)
(0.145239 -0.0416687 0)
(0.123948 -0.0686957 0)
(0.100421 -0.0974873 0)
(0.0645825 -0.132643 0)
(0.0469841 -0.207412 0)
(-0.0227183 -0.38706 0)
(0.0285262 -0.485542 0)
(-0.00342495 0.0286253 0)
(0.0100623 0.101495 0)
(0.03709 0.148673 0)
(0.0689453 0.169427 0)
(0.101831 0.170643 0)
(0.133542 0.158351 0)
(0.16153 0.137917 0)
(0.184067 0.113519 0)
(0.200107 0.0882396 0)
(0.210024 0.0636088 0)
(0.212944 0.0403715 0)
(0.210688 0.0184089 0)
(0.200427 -0.00265408 0)
(0.185801 -0.0232774 0)
(0.160998 -0.0439327 0)
(0.134395 -0.0676887 0)
(0.0928816 -0.10164 0)
(0.0698534 -0.179976 0)
(-0.00438031 -0.370037 0)
(0.0521549 -0.491633 0)
(-0.014004 0.0185287 0)
(-0.00751476 0.0881788 0)
(0.0192063 0.124182 0)
(0.0564276 0.137298 0)
(0.0975694 0.136883 0)
(0.13794 0.127698 0)
(0.174182 0.113042 0)
(0.204016 0.0952668 0)
(0.225903 0.0767997 0)
(0.240988 0.0586581 0)
(0.247019 0.041795 0)
(0.247932 0.0261107 0)
(0.238598 0.011758 0)
(0.226787 -0.00202516 0)
(0.201802 -0.016058 0)
(0.177834 -0.0349915 0)
(0.133506 -0.0677704 0)
(0.107816 -0.145983 0)
(0.0374616 -0.326117 0)
(0.0923631 -0.455871 0)
(-0.106014 0.082426 0)
(-0.0777546 0.068998 0)
(-0.0485687 0.0733658 0)
(0.00376953 0.0778783 0)
(0.0572723 0.0782077 0)
(0.109991 0.0739416 0)
(0.157148 0.0666069 0)
(0.199499 0.0572043 0)
(0.231601 0.0475321 0)
(0.259746 0.0378799 0)
(0.275471 0.0292182 0)
(0.290625 0.0212371 0)
(0.290982 0.0144848 0)
(0.2951 0.0081051 0)
(0.278811 0.00114055 0)
(0.27161 -0.00999726 0)
(0.232314 -0.0355545 0)
(0.218129 -0.0954134 0)
(0.150206 -0.229723 0)
(0.170671 -0.341457 0)
(0.129972 0.103747 0)
(0.158326 0.0752337 0)
(0.212176 0.0532344 0)
(0.270684 0.0416282 0)
(0.323255 0.0359167 0)
(0.37569 0.0319505 0)
(0.420277 0.0289174 0)
(0.465587 0.0255814 0)
(0.498676 0.0229035 0)
(0.53392 0.0197115 0)
(0.553355 0.0175494 0)
(0.579165 0.0146121 0)
(0.585305 0.0131681 0)
(0.60365 0.0103498 0)
(0.595078 0.0093879 0)
(0.603588 0.0050037 0)
(0.567788 9.22889e-05 0)
(0.547619 -0.0183142 0)
(0.4357 -0.0504145 0)
(0.336758 -0.101387 0)
)
;

boundaryField
{
    movingWall
    {
        type            fixedValue;
        value           uniform (1 0 0);
    }
    fixedWalls
    {
        type            noSlip;
    }
    frontAndBack
    {
        type            empty;
    }
}


// ************************************************************************* //
