/*--------------------------------*- C++ -*----------------------------------*\
| =========                 |                                                 |
| \\      /  F ield         | OpenFOAM: The Open Source CFD Toolbox           |
|  \\    /   O peration     | Version:  2212                                  |
|   \\  /    A nd           | Website:  www.openfoam.com                      |
|    \\/     M anipulation  |                                                 |
\*---------------------------------------------------------------------------*/
FoamFile
{
    version     2.0;
    format      ascii;
    arch        "LSB;label=32;scalar=64";
    class       volScalarField;
    location    "9.1";
    object      p;
}
// * * * * * * * * * * * * * * * * * * * * * * * * * * * * * * * * * * * * * //

dimensions      [0 2 -2 0 0 0 0];

internalField   nonuniform List<scalar> 
400
(
5.28428e-07
-0.00015046
-0.000534519
-0.00107169
-0.00173238
-0.00249381
-0.00318489
-0.00359744
-0.00356521
-0.00293395
-0.00154845
0.000619417
0.00324958
0.00551414
0.00653401
0.00592343
0.00400287
0.00215057
0.00111158
0.00104251
0.000116424
-5.79845e-05
-0.00037691
-0.000764067
-0.00124396
-0.00188805
-0.00270611
-0.00354336
-0.0040798
-0.00393821
-0.00284627
-0.000824766
0.00168944
0.00396105
0.00512503
0.0047437
0.00310386
0.0013757
0.000594111
0.00068512
0.000536511
0.000265064
-7.72052e-05
-0.000559539
-0.0013472
-0.00258049
-0.00421891
-0.00598341
-0.00740207
-0.00794334
-0.00726369
-0.00546157
-0.0028913
-0.000194303
0.0017922
0.0024284
0.00170968
0.000503064
-0.000395125
-0.000391883
0.00115196
0.0007413
0.000191958
-0.000774702
-0.00245094
-0.00493749
-0.00799455
-0.0111196
-0.0137022
-0.0151756
-0.0152055
-0.0138386
-0.0112925
-0.00802816
-0.00475144
-0.00220896
-0.000869622
-0.000705442
-0.00128804
-0.00191738
0.00158324
0.000973689
-2.28299e-05
-0.00192392
-0.00500626
-0.00917929
-0.0139124
-0.0184779
-0.0222139
-0.0246503
-0.0255259
-0.0247202
-0.0223611
-0.0187414
-0.014303
-0.00965441
-0.00559109
-0.00294807
-0.00219251
-0.00401714
0.00129321
0.000444949
-0.00119727
-0.00430402
-0.00900419
-0.0148791
-0.0210705
-0.0267122
-0.0311875
-0.0341744
-0.035541
-0.0351851
-0.0331929
-0.0297152
-0.0248965
-0.0189588
-0.0125037
-0.00694726
-0.00440004
-0.00652321
-4.84571e-05
-0.00114759
-0.00349923
-0.00779613
-0.0139311
-0.021112
-0.0282328
-0.0344033
-0.0391234
-0.0422261
-0.0437136
-0.0436043
-0.041967
-0.0388737
-0.0343066
-0.0281538
-0.0205366
-0.0127012
-0.00785372
-0.0077471
-0.00245049
-0.00374204
-0.00669809
-0.0119122
-0.0190377
-0.0269785
-0.0344996
-0.0407734
-0.045444
-0.0484694
-0.0499317
-0.0499231
-0.0485228
-0.0457817
-0.0416567
-0.0359222
-0.0283222
-0.0193687
-0.0118209
-0.00797968
-0.0055374
-0.00691481
-0.0102628
-0.0160202
-0.0236553
-0.0318853
-0.0394457
-0.0456059
-0.0501291
-0.0530483
-0.054477
-0.0545171
-0.0532435
-0.0507175
-0.0469551
-0.0418064
-0.0348635
-0.0259446
-0.0167072
-0.00999333
-0.00873323
-0.0100852
-0.0135964
-0.01954
-0.0272829
-0.0354821
-0.0429055
-0.0489017
-0.0533
-0.0561569
-0.0575803
-0.0576515
-0.0564337
-0.0540016
-0.050443
-0.0457539
-0.039629
-0.0315202
-0.0223186
-0.014338
-0.0115033
-0.0127569
-0.0162177
-0.0220517
-0.0296031
-0.0375831
-0.0448192
-0.0506904
-0.0550324
-0.0578827
-0.0593244
-0.059416
-0.0582073
-0.0557785
-0.052278
-0.0478452
-0.0424255
-0.0353784
-0.0271948
-0.0191769
-0.0135484
-0.0146175
-0.0178541
-0.0233126
-0.0304267
-0.038057
-0.0451102
-0.0509405
-0.0553183
-0.0582286
-0.0597157
-0.0598181
-0.0585767
-0.0560724
-0.0525065
-0.0481308
-0.0432012
-0.0370521
-0.0300286
-0.0224145
-0.0148364
-0.0155667
-0.01835
-0.0232075
-0.0296892
-0.0368731
-0.0437573
-0.0496312
-0.0541444
-0.0571894
-0.0587578
-0.0588649
-0.0575463
-0.0549056
-0.0511685
-0.046649
-0.0419603
-0.0362963
-0.0302231
-0.0228934
-0.0154667
-0.0157209
-0.0177756
-0.0217438
-0.027386
-0.0340264
-0.0407438
-0.0467322
-0.0514832
-0.0547574
-0.0564708
-0.0566118
-0.0551909
-0.0523435
-0.0483384
-0.0435759
-0.0387265
-0.0331386
-0.0280973
-0.0202774
-0.0155734
-0.0152972
-0.0163367
-0.0190858
-0.0236501
-0.0296299
-0.0361659
-0.0423286
-0.0474191
-0.0510299
-0.0529701
-0.0531734
-0.0516816
-0.0485833
-0.0442203
-0.0390493
-0.0337791
-0.0280701
-0.0242304
-0.0143843
-0.0152759
-0.0145493
-0.0142598
-0.0154246
-0.0186828
-0.0238916
-0.030227
-0.036609
-0.0421308
-0.0461932
-0.0484808
-0.0488579
-0.0473453
-0.0440144
-0.0392441
-0.033516
-0.0276401
-0.0216294
-0.0180541
-0.0038337
-0.0146613
-0.0136175
-0.0117063
-0.0110805
-0.0129527
-0.0173785
-0.0235311
-0.0301662
-0.0361878
-0.0408051
-0.0435717
-0.0442548
-0.0428443
-0.0393714
-0.034182
-0.0276884
-0.0206827
-0.013278
-0.00678832
0.0160508
-0.0145827
-0.0126567
-0.00864834
-0.00623477
-0.00691009
-0.0107452
-0.0168163
-0.0237371
-0.0302946
-0.0355343
-0.0388981
-0.0400295
-0.0388726
-0.0354442
-0.0298938
-0.0222757
-0.0128745
-0.000691527
0.016691
0.0570606
-0.0117943
-0.0118305
-0.00572643
-0.00177579
-0.00176576
-0.005405
-0.0115745
-0.0188131
-0.0258725
-0.0316835
-0.0356577
-0.0373572
-0.0366811
-0.0333522
-0.0272227
-0.0175421
-0.00315083
0.0204861
0.0606998
0.129818
-0.0295164
-0.0106297
-0.000609458
0.00307977
0.00244716
-0.00155764
-0.00799919
-0.0155519
-0.0229735
-0.0291701
-0.0335276
-0.0355835
-0.0351972
-0.0319528
-0.0252262
-0.0128604
0.00942027
0.0511677
0.122874
0.226073
)
;

boundaryField
{
    movingWall
    {
        type            zeroGradient;
    }
    fixedWalls
    {
        type            zeroGradient;
    }
    frontAndBack
    {
        type            empty;
    }
}


// ************************************************************************* //
