/*--------------------------------*- C++ -*----------------------------------*\
| =========                 |                                                 |
| \\      /  F ield         | OpenFOAM: The Open Source CFD Toolbox           |
|  \\    /   O peration     | Version:  2212                                  |
|   \\  /    A nd           | Website:  www.openfoam.com                      |
|    \\/     M anipulation  |                                                 |
\*---------------------------------------------------------------------------*/
FoamFile
{
    version     2.0;
    format      ascii;
    arch        "LSB;label=32;scalar=64";
    class       surfaceScalarField;
    location    "9.1";
    object      phi;
}
// * * * * * * * * * * * * * * * * * * * * * * * * * * * * * * * * * * * * * //

dimensions      [0 3 -1 0 0 0 0];

oriented        oriented;

internalField   nonuniform List<scalar> 
760
(
1.56067e-07
-1.56115e-07
2.93598e-07
-1.37531e-07
3.09955e-07
-1.63566e-08
1.83645e-07
1.26309e-07
-1.20335e-07
3.0398e-07
-6.65931e-07
5.45597e-07
-1.48523e-06
8.19302e-07
-2.49077e-06
1.00554e-06
-3.48022e-06
9.89446e-07
-4.22021e-06
7.39985e-07
-4.54385e-06
3.23644e-07
-4.35358e-06
-1.90274e-07
-3.59375e-06
-7.59824e-07
-2.37905e-06
-1.2147e-06
-9.40139e-07
-1.43891e-06
3.47603e-07
-1.28774e-06
1.08982e-06
-7.42213e-07
1.03301e-06
5.68047e-08
4.60972e-07
5.72042e-07
4.60975e-07
1.25023e-07
-2.81138e-07
7.45635e-08
-8.70713e-08
-2.97069e-07
3.55275e-07
-1.07892e-06
9.08163e-07
-2.3159e-06
1.54095e-06
-3.92729e-06
2.15699e-06
-5.66211e-06
2.55413e-06
-7.20678e-06
2.55021e-06
-8.33666e-06
2.11932e-06
-8.942e-06
1.34533e-06
-8.97595e-06
3.57595e-07
-8.416e-06
-7.50225e-07
-7.2935e-06
-1.88233e-06
-5.64198e-06
-2.86622e-06
-3.60584e-06
-3.47505e-06
-1.49031e-06
-3.40327e-06
1.78618e-07
-2.41115e-06
8.58908e-07
-6.23489e-07
5.25676e-07
9.05269e-07
9.86652e-07
-1.27621e-07
-1.53517e-07
-6.33953e-07
4.19261e-07
-1.62493e-06
1.34625e-06
-3.14141e-06
2.42464e-06
-5.05737e-06
3.45692e-06
-7.07313e-06
4.17275e-06
-8.87314e-06
4.35413e-06
-1.02773e-05
3.95441e-06
-1.12341e-05
3.07606e-06
-1.17356e-05
1.84687e-06
-1.17297e-05
3.51663e-07
-1.12708e-05
-1.2091e-06
-1.03382e-05
-2.81497e-06
-8.8776e-06
-4.32678e-06
-6.86943e-06
-5.48322e-06
-4.40316e-06
-5.86954e-06
-1.87875e-06
-4.93555e-06
-8.64398e-08
-2.4158e-06
2.94674e-07
5.24153e-07
1.28133e-06
-5.00527e-07
3.4701e-07
-1.55997e-06
1.4787e-06
-3.11942e-06
2.9057e-06
-5.08124e-06
4.38646e-06
-7.18503e-06
5.56071e-06
-9.12294e-06
6.11066e-06
-1.06927e-05
5.92391e-06
-1.18519e-05
5.11356e-06
-1.26284e-05
3.85265e-06
-1.30571e-05
2.2755e-06
-1.31221e-05
4.16725e-07
-1.28827e-05
-1.44858e-06
-1.22999e-05
-3.39773e-06
-1.12721e-05
-5.35461e-06
-9.66846e-06
-7.08682e-06
-7.36444e-06
-8.17356e-06
-4.39868e-06
-7.90132e-06
-1.37807e-06
-5.43641e-06
1.20718e-07
-9.74633e-07
1.40204e-06
-8.61926e-07
1.20894e-06
-2.36165e-06
2.97843e-06
-4.23266e-06
4.77672e-06
-6.27994e-06
6.43373e-06
-8.22227e-06
7.50304e-06
-9.83694e-06
7.72532e-06
-1.10473e-05
7.13425e-06
-1.18798e-05
5.94612e-06
-1.23964e-05
4.3692e-06
-1.26696e-05
2.54868e-06
-1.27902e-05
5.37309e-07
-1.27446e-05
-1.49419e-06
-1.2524e-05
-3.61833e-06
-1.20494e-05
-5.82912e-06
-1.11348e-05
-8.00144e-06
-9.49217e-06
-9.81621e-06
-6.82203e-06
-1.05715e-05
-3.22293e-06
-9.03551e-06
-2.61182e-07
-3.93638e-06
1.14086e-06
-1.08706e-06
2.296e-06
-2.78454e-06
4.6759e-06
-4.67827e-06
6.67045e-06
-6.53627e-06
8.29173e-06
-8.13419e-06
9.10096e-06
-9.34104e-06
8.93217e-06
-1.01528e-05
7.94602e-06
-1.06346e-05
6.42792e-06
-1.08766e-05
4.61124e-06
-1.09786e-05
2.65061e-06
-1.10618e-05
6.20501e-07
-1.11123e-05
-1.44361e-06
-1.11465e-05
-3.58414e-06
-1.11355e-05
-5.84018e-06
-1.09258e-05
-8.21106e-06
-1.01907e-05
-1.05513e-05
-8.43576e-06
-1.23264e-05
-5.24486e-06
-1.22264e-05
-1.15864e-06
-8.0226e-06
-1.77828e-08
-1.11116e-06
3.40716e-06
-2.7592e-06
6.32394e-06
-4.45712e-06
8.36837e-06
-5.9931e-06
9.82772e-06
-7.20705e-06
1.03149e-05
-8.03665e-06
9.76177e-06
-8.51968e-06
8.42904e-06
-8.7431e-06
6.65134e-06
-8.81038e-06
4.67852e-06
-8.81824e-06
2.65847e-06
-8.84877e-06
6.51027e-07
-8.92014e-06
-1.37224e-06
-9.05231e-06
-3.45196e-06
-9.25695e-06
-5.63554e-06
-9.47806e-06
-7.98995e-06
-9.48487e-06
-1.05445e-05
-8.75867e-06
-1.30526e-05
-6.54099e-06
-1.44441e-05
-2.42486e-06
-1.21387e-05
-2.44264e-06
-9.36546e-07
4.3437e-06
-2.34882e-06
7.73621e-06
-3.73669e-06
9.75624e-06
-4.91667e-06
1.10077e-05
-5.78781e-06
1.11861e-05
-6.33333e-06
1.03073e-05
-6.61041e-06
8.70612e-06
-6.71005e-06
6.75099e-06
-6.72809e-06
4.69656e-06
-6.73723e-06
2.66761e-06
-6.77282e-06
6.86616e-07
-6.85164e-06
-1.29342e-06
-6.99462e-06
-3.30898e-06
-7.2324e-06
-5.39775e-06
-7.58258e-06
-7.63978e-06
-7.95514e-06
-1.0172e-05
-7.94103e-06
-1.30667e-05
-6.7223e-06
-1.56628e-05
-3.58967e-06
-1.52713e-05
-6.03232e-06
-6.25995e-07
4.9697e-06
-1.6896e-06
8.79982e-06
-2.72378e-06
1.07904e-05
-3.56391e-06
1.18478e-05
-4.15451e-06
1.17767e-05
-4.50576e-06
1.06585e-05
-4.67658e-06
8.87694e-06
-4.7453e-06
6.81971e-06
-4.78403e-06
4.7353e-06
-4.83599e-06
2.71957e-06
-4.91099e-06
7.61615e-07
-5.01519e-06
-1.18921e-06
-5.15836e-06
-3.16582e-06
-5.36901e-06
-5.1871e-06
-5.70232e-06
-7.30647e-06
-6.17246e-06
-9.70184e-06
-6.56271e-06
-1.26765e-05
-6.13271e-06
-1.60928e-05
-3.92694e-06
-1.74771e-05
-9.95926e-06
-2.33234e-07
5.20293e-06
-8.94929e-07
9.46151e-06
-1.56743e-06
1.14629e-05
-2.09793e-06
1.23783e-05
-2.45876e-06
1.21375e-05
-2.67424e-06
1.0874e-05
-2.79257e-06
8.99527e-06
-2.86694e-06
6.89408e-06
-2.9418e-06
4.81017e-06
-3.03899e-06
2.81675e-06
-3.16119e-06
8.83816e-07
-3.30789e-06
-1.04251e-06
-3.47911e-06
-2.99459e-06
-3.68691e-06
-4.9793e-06
-3.98163e-06
-7.01175e-06
-4.44572e-06
-9.23775e-06
-5.02782e-06
-1.20944e-05
-5.12721e-06
-1.59934e-05
-3.56066e-06
-1.90437e-05
-1.35199e-05
1.63761e-07
5.03917e-06
-7.04317e-08
9.69571e-06
-4.03877e-07
1.17964e-05
-6.55385e-07
1.26298e-05
-8.10889e-07
1.2293e-05
-9.0153e-07
1.09647e-05
-9.66664e-07
9.0604e-06
-1.03814e-06
6.96556e-06
-1.13251e-06
4.90453e-06
-1.25752e-06
2.94176e-06
-1.41575e-06
1.04204e-06
-1.60932e-06
-8.48938e-07
-1.83666e-06
-2.76725e-06
-2.09538e-06
-4.72058e-06
-2.41266e-06
-6.69446e-06
-2.87989e-06
-8.77052e-06
-3.56262e-06
-1.14117e-05
-4.02708e-06
-1.5529e-05
-3.02682e-06
-2.00439e-05
-1.65467e-05
5.02443e-07
4.53673e-06
7.00674e-07
9.49747e-06
7.44071e-07
1.1753e-05
7.79822e-07
1.25941e-05
8.24787e-07
1.2248e-05
8.53663e-07
1.09358e-05
8.46813e-07
9.06725e-06
7.96051e-07
7.01632e-06
7.0218e-07
4.9984e-06
5.66894e-07
3.07705e-06
3.84961e-07
1.22398e-06
1.5019e-07
-6.14167e-07
-1.3896e-07
-2.4781e-06
-4.8913e-07
-4.37041e-06
-9.03845e-07
-6.27975e-06
-1.42648e-06
-8.24788e-06
-2.20454e-06
-1.06336e-05
-2.95403e-06
-1.47795e-05
-2.46097e-06
-2.0537e-05
-1.90077e-05
7.59711e-07
3.77702e-06
1.35946e-06
8.89773e-06
1.75392e-06
1.13585e-05
2.08496e-06
1.2263e-05
2.35948e-06
1.19735e-05
2.54736e-06
1.07479e-05
2.64053e-06
8.97408e-06
2.64969e-06
7.00716e-06
2.58879e-06
5.0593e-06
2.46418e-06
3.20166e-06
2.26819e-06
1.41997e-06
1.98674e-06
-3.32713e-07
1.6205e-06
-2.11186e-06
1.16458e-06
-3.91449e-06
6.14762e-07
-5.72993e-06
-8.00483e-08
-7.55307e-06
-9.53798e-07
-9.75986e-06
-1.91693e-06
-1.38163e-05
-1.92419e-06
-2.05297e-05
-2.09319e-05
8.75448e-07
2.90157e-06
1.81886e-06
7.95431e-06
2.56387e-06
1.06135e-05
3.2079e-06
1.1619e-05
3.75845e-06
1.1423e-05
4.17231e-06
1.0334e-05
4.43368e-06
8.71271e-06
4.5565e-06
6.88434e-06
4.56357e-06
5.05223e-06
4.46986e-06
3.29538e-06
4.27312e-06
1.6167e-06
3.94071e-06
-2.96542e-10
3.49341e-06
-1.66456e-06
2.90561e-06
-3.32669e-06
2.17859e-06
-5.00291e-06
1.33153e-06
-6.70602e-06
2.74133e-07
-8.70245e-06
-9.53313e-07
-1.25889e-05
-1.42496e-06
-2.00581e-05
-2.23569e-05
8.11329e-07
2.09024e-06
1.96481e-06
6.80084e-06
3.01237e-06
9.56594e-06
3.99036e-06
1.0641e-05
4.87186e-06
1.05415e-05
5.59089e-06
9.61501e-06
6.10834e-06
8.19526e-06
6.42717e-06
6.56552e-06
6.56806e-06
4.91133e-06
6.54882e-06
3.31462e-06
6.36757e-06
1.79795e-06
6.02162e-06
3.45656e-07
5.47789e-06
-1.12083e-06
4.74391e-06
-2.59271e-06
3.81187e-06
-4.07087e-06
2.71084e-06
-5.60499e-06
1.40144e-06
-7.39306e-06
-1.49069e-07
-1.10384e-05
-9.09145e-07
-1.9298e-05
-2.3266e-05
5.81375e-07
1.50887e-06
1.77006e-06
5.61215e-06
3.11511e-06
8.2209e-06
4.47269e-06
9.28344e-06
5.74531e-06
9.26883e-06
6.83437e-06
8.52594e-06
7.67446e-06
7.35517e-06
8.25286e-06
5.98712e-06
8.58183e-06
4.58237e-06
8.67793e-06
3.21852e-06
8.54776e-06
1.92812e-06
8.18841e-06
7.05001e-07
7.55575e-06
-4.8817e-07
6.66724e-06
-1.70419e-06
5.51026e-06
-2.91389e-06
4.12587e-06
-4.2206e-06
2.58813e-06
-5.85532e-06
9.68817e-07
-9.41906e-06
-1.3904e-07
-1.81901e-05
-2.34051e-05
1.54288e-07
1.35458e-06
1.04852e-06
4.71793e-06
2.53321e-06
6.73621e-06
4.26317e-06
7.55348e-06
5.99303e-06
7.53897e-06
7.53504e-06
6.98394e-06
8.78648e-06
6.10373e-06
9.71753e-06
5.05607e-06
1.03232e-05
3.97671e-06
1.06148e-05
2.92695e-06
1.05981e-05
1.94474e-06
1.02788e-05
1.02432e-06
9.61041e-06
1.80224e-07
8.61557e-06
-7.09348e-07
7.28402e-06
-1.58235e-06
5.668e-06
-2.60457e-06
3.92871e-06
-4.11604e-06
2.25048e-06
-7.74083e-06
6.56845e-07
-1.65965e-05
-2.27482e-05
-5.19115e-07
1.87369e-06
2.03671e-07
3.99514e-06
1.76769e-06
5.17218e-06
3.8411e-06
5.48007e-06
6.00667e-06
5.3734e-06
7.97736e-06
5.01325e-06
9.61654e-06
4.46454e-06
1.08826e-05
3.79e-06
1.1758e-05
3.10132e-06
1.22588e-05
2.42616e-06
1.23884e-05
1.81514e-06
1.21665e-05
1.24621e-06
1.16174e-05
7.29351e-07
1.07113e-05
1.96777e-07
9.45289e-06
-3.23984e-07
7.91607e-06
-1.06775e-06
6.28669e-06
-2.48666e-06
4.46662e-06
-5.92076e-06
2.05968e-06
-1.41896e-05
-2.06885e-05
-4.18153e-06
6.05523e-06
-3.64412e-06
3.45773e-06
-1.24386e-06
2.77193e-06
1.56247e-06
2.67374e-06
4.3109e-06
2.62497e-06
6.85437e-06
2.46979e-06
9.07916e-06
2.23976e-06
1.09248e-05
1.9444e-06
1.23726e-05
1.65351e-06
1.34495e-05
1.34922e-06
1.41726e-05
1.09208e-06
1.45865e-05
8.32266e-07
1.46789e-05
6.36944e-07
1.44587e-05
4.16967e-07
1.3922e-05
2.12739e-07
1.30846e-05
-2.3037e-07
1.19345e-05
-1.33651e-06
1.01166e-05
-4.1029e-06
5.63956e-06
-9.7125e-06
-1.5049e-05
6.05523e-06
9.51295e-06
1.22849e-05
1.49586e-05
1.75836e-05
2.00534e-05
2.22931e-05
2.42375e-05
2.5891e-05
2.72403e-05
2.83323e-05
2.91646e-05
2.98015e-05
3.02185e-05
3.04313e-05
3.02009e-05
2.88644e-05
2.47615e-05
1.5049e-05
)
;

boundaryField
{
    movingWall
    {
        type            calculated;
        value           uniform 0;
    }
    fixedWalls
    {
        type            calculated;
        value           uniform 0;
    }
    frontAndBack
    {
        type            empty;
        value           nonuniform List<scalar> 0();
    }
}


// ************************************************************************* //
