/*--------------------------------*- C++ -*----------------------------------*\
| =========                 |                                                 |
| \\      /  F ield         | OpenFOAM: The Open Source CFD Toolbox           |
|  \\    /   O peration     | Version:  2212                                  |
|   \\  /    A nd           | Website:  www.openfoam.com                      |
|    \\/     M anipulation  |                                                 |
\*---------------------------------------------------------------------------*/
FoamFile
{
    version     2.0;
    format      ascii;
    arch        "LSB;label=32;scalar=64";
    class       volScalarField;
    location    "18";
    object      T;
}
// * * * * * * * * * * * * * * * * * * * * * * * * * * * * * * * * * * * * * //

dimensions      [0 0 0 1 0 0 0];

internalField   nonuniform List<scalar> 
400
(
0.978391
0.978843
0.979758
0.981114
0.982698
0.984147
0.985192
0.985804
0.986137
0.986365
0.986572
0.986787
0.987017
0.987256
0.987466
0.987589
0.987527
0.987178
0.9866
0.986126
0.978967
0.979521
0.980629
0.982218
0.983904
0.985152
0.985767
0.985983
0.986056
0.986112
0.986227
0.986447
0.986788
0.987231
0.987687
0.988021
0.988026
0.987544
0.986782
0.986234
0.979865
0.98061
0.981992
0.983658
0.984972
0.98553
0.985506
0.985231
0.984888
0.984629
0.984584
0.984846
0.985417
0.98628
0.987279
0.988189
0.988627
0.988217
0.987117
0.986435
0.980745
0.981688
0.983196
0.984547
0.985119
0.984852
0.984098
0.983138
0.982191
0.981491
0.981217
0.98152
0.982362
0.983761
0.985526
0.987383
0.988826
0.989192
0.987975
0.986903
0.981422
0.982477
0.983866
0.984611
0.9843
0.983139
0.981516
0.97973
0.978098
0.976907
0.976369
0.97666
0.977733
0.979625
0.982166
0.98508
0.987857
0.989711
0.989514
0.987769
0.981865
0.982913
0.98398
0.983982
0.982754
0.980667
0.978139
0.975544
0.973281
0.971657
0.970886
0.971108
0.972321
0.974544
0.977666
0.98145
0.985449
0.988922
0.990655
0.989036
0.982108
0.983039
0.983668
0.982915
0.980829
0.977886
0.974551
0.971292
0.968557
0.966644
0.965732
0.965894
0.967151
0.969513
0.972937
0.977277
0.982171
0.986933
0.990473
0.990854
0.982206
0.982969
0.983159
0.981742
0.978917
0.975243
0.97126
0.967522
0.96449
0.962431
0.961464
0.961601
0.962846
0.965197
0.968662
0.973228
0.978696
0.98445
0.989359
0.991826
0.982206
0.982789
0.982593
0.980646
0.977249
0.973029
0.968593
0.964546
0.961344
0.959216
0.958227
0.958354
0.959573
0.961856
0.96521
0.969715
0.975422
0.981925
0.987931
0.991381
0.982146
0.98258
0.982121
0.979843
0.976076
0.971495
0.966763
0.962516
0.959203
0.957016
0.955987
0.956085
0.957275
0.959501
0.962717
0.967004
0.972635
0.979588
0.986639
0.991044
0.982045
0.982377
0.981772
0.979336
0.975392
0.970646
0.965789
0.961458
0.958079
0.955826
0.954722
0.954748
0.955876
0.958039
0.961133
0.965157
0.970488
0.977564
0.985438
0.990829
0.981917
0.982203
0.981595
0.979216
0.975322
0.97061
0.965777
0.961445
0.958022
0.955689
0.954481
0.954393
0.955405
0.957451
0.960397
0.964139
0.96903
0.975964
0.984476
0.990712
0.981758
0.982046
0.981528
0.979362
0.975706
0.971217
0.966577
0.962372
0.958995
0.956631
0.955334
0.955108
0.955946
0.957788
0.960497
0.963911
0.968265
0.974794
0.983718
0.990699
0.981559
0.981895
0.981566
0.979785
0.976584
0.972531
0.968262
0.964319
0.961075
0.958727
0.957352
0.956954
0.957549
0.95908
0.961427
0.964408
0.968156
0.974114
0.983228
0.99077
0.981298
0.981708
0.981565
0.980203
0.97757
0.974119
0.970411
0.966921
0.963984
0.961786
0.960417
0.959878
0.960196
0.961328
0.963179
0.965625
0.968726
0.973918
0.982974
0.990929
0.980989
0.981491
0.981591
0.980721
0.978777
0.976085
0.973096
0.970209
0.967706
0.965752
0.964438
0.963778
0.963779
0.964431
0.965679
0.967463
0.969863
0.974131
0.982967
0.991179
0.980681
0.981175
0.981354
0.98084
0.979533
0.977645
0.975492
0.973364
0.971467
0.96993
0.968809
0.968138
0.967896
0.968107
0.968768
0.969873
0.97164
0.975096
0.983483
0.991605
0.980463
0.981066
0.98143
0.981219
0.98048
0.97934
0.977982
0.976585
0.975278
0.974157
0.973258
0.972623
0.972247
0.972153
0.972403
0.972971
0.97427
0.976925
0.984449
0.992141
0.977513
0.980404
0.98039
0.980282
0.979883
0.979354
0.97875
0.97819
0.977675
0.977295
0.977017
0.97689
0.976896
0.977025
0.977377
0.977828
0.978985
0.981
0.986704
0.99306
0.984207
0.986115
0.987135
0.987747
0.988072
0.988276
0.988381
0.988489
0.988565
0.988685
0.988791
0.988952
0.989102
0.989307
0.989504
0.989778
0.990128
0.990867
0.992343
0.99494
)
;

boundaryField
{
    movingWall
    {
        type            fixedValue;
        value           uniform 1;
    }
    fixedWalls
    {
        type            zeroGradient;
    }
    frontAndBack
    {
        type            empty;
    }
}


// ************************************************************************* //
