/*--------------------------------*- C++ -*----------------------------------*\
| =========                 |                                                 |
| \\      /  F ield         | OpenFOAM: The Open Source CFD Toolbox           |
|  \\    /   O peration     | Version:  2212                                  |
|   \\  /    A nd           | Website:  www.openfoam.com                      |
|    \\/     M anipulation  |                                                 |
\*---------------------------------------------------------------------------*/
FoamFile
{
    version     2.0;
    format      ascii;
    arch        "LSB;label=32;scalar=64";
    class       volScalarField;
    location    "11.2";
    object      p;
}
// * * * * * * * * * * * * * * * * * * * * * * * * * * * * * * * * * * * * * //

dimensions      [0 2 -2 0 0 0 0];

internalField   nonuniform List<scalar> 
400
(
5.1617e-07
-0.000150475
-0.000534555
-0.00107176
-0.00173248
-0.00249396
-0.00318509
-0.00359765
-0.00356543
-0.00293416
-0.00154861
0.000619346
0.00324957
0.00551409
0.00653379
0.00592293
0.00400213
0.00214972
0.00111072
0.00104167
0.000116412
-5.80028e-05
-0.000376949
-0.000764123
-0.00124404
-0.00188817
-0.00270629
-0.00354361
-0.0040801
-0.00393851
-0.00284652
-0.000824931
0.00168934
0.00396092
0.00512473
0.00474314
0.00310306
0.00137482
0.000593224
0.000684269
0.00053653
0.000265061
-7.72317e-05
-0.00055959
-0.0013473
-0.00258069
-0.00421926
-0.00598393
-0.00740271
-0.00794402
-0.00726433
-0.00546212
-0.00289175
-0.000194724
0.0017917
0.00242773
0.00170882
0.000502126
-0.000396068
-0.000392781
0.00115204
0.000741356
0.000191966
-0.00077477
-0.00245116
-0.00493793
-0.0079953
-0.0111207
-0.0137035
-0.0151771
-0.015207
-0.01384
-0.0112937
-0.0080292
-0.00475238
-0.00220988
-0.000870554
-0.000706391
-0.001289
-0.00191833
0.00158343
0.000973831
-2.27931e-05
-0.00192409
-0.00500674
-0.00918021
-0.0139139
-0.0184799
-0.0222163
-0.0246529
-0.0255286
-0.0247228
-0.0223634
-0.0187435
-0.0143047
-0.00965581
-0.00559225
-0.00294907
-0.00219344
-0.00401815
0.00129348
0.000445137
-0.00119727
-0.0043044
-0.00900512
-0.0148807
-0.0210728
-0.0267153
-0.0311912
-0.0341785
-0.0355452
-0.0351893
-0.0331967
-0.0297185
-0.0248992
-0.0189609
-0.0125053
-0.00694848
-0.00440106
-0.00652435
-4.81964e-05
-0.00114745
-0.0034994
-0.00779684
-0.0139326
-0.0211144
-0.0282362
-0.0344076
-0.0391285
-0.0422318
-0.0437195
-0.0436101
-0.0419723
-0.0388784
-0.0343105
-0.0281569
-0.0205389
-0.0127029
-0.0078549
-0.00774812
-0.00245037
-0.00374208
-0.00669854
-0.0119134
-0.0190399
-0.0269818
-0.034504
-0.040779
-0.0454505
-0.0484766
-0.0499393
-0.0499305
-0.0485298
-0.0457879
-0.0416619
-0.0359263
-0.0283254
-0.0193709
-0.0118223
-0.00798064
-0.00553752
-0.00691511
-0.0102636
-0.0160219
-0.0236581
-0.0318894
-0.0394511
-0.0456126
-0.050137
-0.053057
-0.0544861
-0.0545262
-0.053252
-0.0507252
-0.0469616
-0.0418116
-0.0348675
-0.0259475
-0.0167091
-0.00999457
-0.00873363
-0.0100858
-0.0135976
-0.0195421
-0.0272862
-0.0354869
-0.0429118
-0.0489093
-0.0533089
-0.0561668
-0.0575907
-0.0576619
-0.0564435
-0.0540105
-0.0504506
-0.0457599
-0.0396337
-0.0315237
-0.0223211
-0.0143398
-0.0115039
-0.0127578
-0.0162191
-0.0220541
-0.0296069
-0.0375883
-0.044826
-0.0506987
-0.055042
-0.0578934
-0.0593356
-0.0594272
-0.058218
-0.0557881
-0.0522861
-0.0478517
-0.0424306
-0.0353823
-0.0271977
-0.0191792
-0.0135492
-0.0146185
-0.0178557
-0.0233152
-0.0304306
-0.0380623
-0.0451172
-0.050949
-0.0553282
-0.0582395
-0.0597271
-0.0598295
-0.0585875
-0.0560822
-0.0525148
-0.0481374
-0.0432063
-0.0370559
-0.0300316
-0.022417
-0.0148372
-0.0155676
-0.0183516
-0.0232099
-0.0296929
-0.0368782
-0.0437639
-0.0496393
-0.0541539
-0.0571999
-0.0587689
-0.058876
-0.0575567
-0.0549149
-0.0511763
-0.0466551
-0.0419649
-0.0362997
-0.0302258
-0.0228956
-0.0154675
-0.0157218
-0.0177769
-0.0217459
-0.0273892
-0.034031
-0.0407497
-0.0467396
-0.0514919
-0.0547671
-0.056481
-0.056622
-0.0552004
-0.0523519
-0.0483452
-0.0435811
-0.0387301
-0.033141
-0.0280993
-0.020279
-0.0155741
-0.0152979
-0.0163377
-0.0190874
-0.0236526
-0.0296335
-0.0361708
-0.0423349
-0.0474266
-0.0510384
-0.052979
-0.0531823
-0.0516899
-0.0485904
-0.0442259
-0.0390532
-0.0337814
-0.0280713
-0.0242312
-0.0143847
-0.0152765
-0.0145498
-0.0142605
-0.0154256
-0.0186844
-0.0238941
-0.0302308
-0.036614
-0.0421369
-0.0462002
-0.0484883
-0.0488654
-0.0473522
-0.04402
-0.0392482
-0.0335184
-0.0276409
-0.0216291
-0.0180534
-0.00383279
-0.0146617
-0.0136179
-0.0117066
-0.0110808
-0.0129533
-0.0173799
-0.0235335
-0.0301698
-0.0361925
-0.0408107
-0.0435778
-0.0442608
-0.0428498
-0.0393757
-0.0341847
-0.0276894
-0.0206821
-0.0132762
-0.00678584
0.0160529
-0.0145829
-0.0126569
-0.00864824
-0.00623442
-0.00690987
-0.0107456
-0.0168175
-0.0237395
-0.030298
-0.0355386
-0.0389029
-0.0400343
-0.0388769
-0.0354474
-0.0298954
-0.0222756
-0.0128726
-0.000688303
0.0166948
0.0570637
-0.0117943
-0.0118305
-0.00572592
-0.00177489
-0.00176487
-0.00540456
-0.0115749
-0.0188146
-0.025875
-0.0316869
-0.0356616
-0.0373612
-0.0366847
-0.0333548
-0.0272238
-0.0175414
-0.0031483
0.0204901
0.0607041
0.129821
-0.0295166
-0.0106295
-0.000608713
0.00308091
0.00244833
-0.00155688
-0.00799924
-0.015553
-0.0229757
-0.0291732
-0.0335313
-0.0355873
-0.0352005
-0.0319553
-0.0252273
-0.0128598
0.00942258
0.0511713
0.122878
0.226076
)
;

boundaryField
{
    movingWall
    {
        type            zeroGradient;
    }
    fixedWalls
    {
        type            zeroGradient;
    }
    frontAndBack
    {
        type            empty;
    }
}


// ************************************************************************* //
