/*--------------------------------*- C++ -*----------------------------------*\
| =========                 |                                                 |
| \\      /  F ield         | OpenFOAM: The Open Source CFD Toolbox           |
|  \\    /   O peration     | Version:  2212                                  |
|   \\  /    A nd           | Website:  www.openfoam.com                      |
|    \\/     M anipulation  |                                                 |
\*---------------------------------------------------------------------------*/
FoamFile
{
    version     2.0;
    format      ascii;
    arch        "LSB;label=32;scalar=64";
    class       volScalarField;
    location    "11.2";
    object      T;
}
// * * * * * * * * * * * * * * * * * * * * * * * * * * * * * * * * * * * * * //

dimensions      [0 0 0 1 0 0 0];

internalField   nonuniform List<scalar> 
400
(
0.916779
0.918665
0.922502
0.928163
0.93473
0.940669
0.944867
0.94726
0.948524
0.949374
0.95014
0.950925
0.95176
0.952613
0.953349
0.953746
0.953435
0.952023
0.949715
0.947824
0.919218
0.921526
0.926147
0.932741
0.939673
0.944726
0.947164
0.948014
0.948319
0.948548
0.948985
0.949798
0.951041
0.952641
0.954271
0.955425
0.955328
0.953396
0.950397
0.94823
0.923027
0.92611
0.931827
0.938691
0.944064
0.946346
0.946335
0.945383
0.944172
0.943254
0.943109
0.944073
0.946159
0.949299
0.952921
0.95618
0.957661
0.955948
0.951651
0.948981
0.926753
0.930635
0.936854
0.942427
0.944857
0.943988
0.941288
0.93783
0.934399
0.931862
0.930872
0.931984
0.935059
0.940168
0.946609
0.953369
0.958571
0.959723
0.95493
0.950764
0.929625
0.933973
0.939734
0.942935
0.941984
0.937798
0.931921
0.925427
0.919483
0.915147
0.913187
0.914248
0.918157
0.925063
0.934343
0.944999
0.955147
0.961855
0.960863
0.954099
0.931535
0.935882
0.94042
0.940777
0.93639
0.928813
0.919623
0.910173
0.901936
0.896025
0.893217
0.894023
0.898428
0.906517
0.917893
0.931712
0.946344
0.959067
0.965325
0.958995
0.932626
0.936552
0.939439
0.936951
0.929392
0.918689
0.906555
0.894699
0.884763
0.877818
0.874508
0.875089
0.879647
0.888216
0.90066
0.916469
0.934339
0.951782
0.964771
0.966007
0.933127
0.936423
0.937663
0.9327
0.922432
0.90907
0.894587
0.881005
0.870009
0.86255
0.859049
0.859541
0.864042
0.872551
0.885118
0.901712
0.921641
0.94268
0.96069
0.969771
0.933224
0.935836
0.935636
0.928716
0.916359
0.901017
0.884899
0.870214
0.858619
0.850924
0.847348
0.847803
0.852203
0.860453
0.872591
0.888931
0.909696
0.933435
0.955442
0.968131
0.933065
0.935103
0.93392
0.925788
0.912091
0.89544
0.878254
0.862863
0.850877
0.842979
0.839263
0.839614
0.843904
0.851938
0.863562
0.879087
0.899537
0.924891
0.950708
0.966898
0.932735
0.934362
0.932631
0.923934
0.909601
0.892353
0.874723
0.859033
0.846815
0.838679
0.834695
0.834787
0.838853
0.846656
0.85783
0.872387
0.891721
0.91749
0.946302
0.966109
0.932283
0.933699
0.931939
0.923475
0.909337
0.892217
0.874679
0.858982
0.846609
0.838182
0.833824
0.833503
0.837149
0.844532
0.855169
0.868695
0.886416
0.911646
0.942778
0.965679
0.931702
0.933079
0.931635
0.923974
0.910725
0.894421
0.877576
0.862337
0.850121
0.841581
0.836898
0.836079
0.839098
0.845744
0.855529
0.86787
0.883631
0.907363
0.939993
0.965633
0.930955
0.932465
0.931685
0.925458
0.913895
0.899183
0.883683
0.869385
0.857641
0.849148
0.844178
0.842737
0.844884
0.850411
0.858893
0.869668
0.88323
0.904873
0.938196
0.965898
0.92997
0.931711
0.931583
0.926913
0.917449
0.904942
0.891477
0.878815
0.868169
0.860207
0.855253
0.8533
0.854448
0.858535
0.865227
0.874072
0.885291
0.904142
0.937256
0.966482
0.928798
0.930841
0.931556
0.928686
0.921772
0.912049
0.901214
0.890735
0.881654
0.87457
0.869806
0.86741
0.867409
0.869765
0.874276
0.880729
0.889408
0.904899
0.937223
0.967402
0.927637
0.92964
0.930603
0.929015
0.924437
0.917663
0.90988
0.902167
0.895286
0.889709
0.885642
0.883204
0.882319
0.883076
0.885464
0.889454
0.895853
0.908404
0.939107
0.968967
0.926816
0.929174
0.930771
0.930257
0.927749
0.923715
0.918847
0.913807
0.909075
0.905013
0.901751
0.899443
0.898072
0.897725
0.898625
0.900679
0.905399
0.915065
0.942644
0.970941
0.915951
0.92689
0.926999
0.926762
0.925427
0.923587
0.921455
0.919463
0.917626
0.916273
0.915284
0.914844
0.914887
0.915376
0.916678
0.918338
0.922583
0.929969
0.950918
0.974324
0.940941
0.948104
0.951956
0.954285
0.955552
0.956359
0.9568
0.957242
0.957559
0.958035
0.958455
0.959075
0.959649
0.960423
0.961165
0.962191
0.963491
0.966225
0.971658
0.98125
)
;

boundaryField
{
    movingWall
    {
        type            fixedValue;
        value           uniform 1;
    }
    fixedWalls
    {
        type            zeroGradient;
    }
    frontAndBack
    {
        type            empty;
    }
}


// ************************************************************************* //
