/*--------------------------------*- C++ -*----------------------------------*\
| =========                 |                                                 |
| \\      /  F ield         | OpenFOAM: The Open Source CFD Toolbox           |
|  \\    /   O peration     | Version:  2212                                  |
|   \\  /    A nd           | Website:  www.openfoam.com                      |
|    \\/     M anipulation  |                                                 |
\*---------------------------------------------------------------------------*/
FoamFile
{
    version     2.0;
    format      ascii;
    arch        "LSB;label=32;scalar=64";
    class       volScalarField;
    location    "10.9";
    object      p;
}
// * * * * * * * * * * * * * * * * * * * * * * * * * * * * * * * * * * * * * //

dimensions      [0 2 -2 0 0 0 0];

internalField   nonuniform List<scalar> 
400
(
5.82772e-07
-0.000150402
-0.000534482
-0.00107168
-0.00173241
-0.00249388
-0.00318501
-0.00359758
-0.00356536
-0.00293409
-0.00154853
0.000619419
0.00324963
0.00551416
0.00653387
0.00592303
0.00400225
0.00214984
0.00111082
0.00104174
0.000116484
-5.79298e-05
-0.000376876
-0.000764051
-0.00124397
-0.0018881
-0.00270621
-0.00354353
-0.00408002
-0.00393844
-0.00284644
-0.000824852
0.00168941
0.00396098
0.0051248
0.00474324
0.00310317
0.00137495
0.000593361
0.000684373
0.000536602
0.000265133
-7.71591e-05
-0.000559518
-0.00134723
-0.00258062
-0.00421917
-0.00598382
-0.00740262
-0.00794393
-0.00726424
-0.00546202
-0.00289166
-0.000194633
0.0017918
0.00242783
0.00170892
0.000502243
-0.000395936
-0.000392664
0.00115211
0.000741426
0.000192038
-0.000774695
-0.00245108
-0.00493785
-0.0079952
-0.0111205
-0.0137034
-0.0151769
-0.0152068
-0.0138399
-0.0112936
-0.00802907
-0.00475226
-0.00220976
-0.00087044
-0.00070628
-0.00128888
-0.00191821
0.0015835
0.000973896
-2.27248e-05
-0.001924
-0.00500664
-0.0091801
-0.0139137
-0.0184797
-0.0222161
-0.0246527
-0.0255284
-0.0247226
-0.0223632
-0.0187433
-0.0143045
-0.00965566
-0.00559212
-0.00294895
-0.00219332
-0.00401803
0.00129354
0.0004452
-0.00119721
-0.00430431
-0.00900499
-0.0148806
-0.0210726
-0.0267151
-0.0311909
-0.0341782
-0.0355449
-0.035189
-0.0331964
-0.0297182
-0.024899
-0.0189607
-0.0125052
-0.00694835
-0.00440093
-0.00652422
-4.81376e-05
-0.00114738
-0.00349932
-0.00779675
-0.0139325
-0.0211142
-0.0282359
-0.0344073
-0.0391281
-0.0422314
-0.0437191
-0.0436097
-0.041972
-0.0388781
-0.0343103
-0.0281567
-0.0205387
-0.0127027
-0.00785477
-0.007748
-0.0024503
-0.003742
-0.00669844
-0.0119132
-0.0190397
-0.0269816
-0.0345037
-0.0407786
-0.0454501
-0.0484761
-0.0499388
-0.0499301
-0.0485294
-0.0457875
-0.0416615
-0.035926
-0.0283252
-0.0193708
-0.0118222
-0.00798052
-0.00553745
-0.00691503
-0.0102635
-0.0160217
-0.0236579
-0.0318891
-0.0394508
-0.0456122
-0.0501365
-0.0530565
-0.0544856
-0.0545257
-0.0532515
-0.0507247
-0.0469612
-0.0418112
-0.0348672
-0.0259473
-0.0167089
-0.00999444
-0.00873354
-0.0100857
-0.0135974
-0.0195419
-0.027286
-0.0354866
-0.0429114
-0.0489089
-0.0533084
-0.0561662
-0.05759
-0.0576613
-0.0564429
-0.0540099
-0.0504501
-0.0457595
-0.0396334
-0.0315235
-0.0223209
-0.0143396
-0.0115038
-0.0127576
-0.016219
-0.0220539
-0.0296066
-0.0375879
-0.0448256
-0.0506982
-0.0550414
-0.0578927
-0.059335
-0.0594265
-0.0582173
-0.0557875
-0.0522856
-0.0478513
-0.0424303
-0.035382
-0.0271975
-0.019179
-0.0135491
-0.0146184
-0.0178555
-0.023315
-0.0304303
-0.038062
-0.0451167
-0.0509485
-0.0553276
-0.0582388
-0.0597264
-0.0598288
-0.0585868
-0.0560816
-0.0525142
-0.048137
-0.043206
-0.0370557
-0.0300314
-0.0224168
-0.0148371
-0.0155675
-0.0183514
-0.0232097
-0.0296926
-0.0368779
-0.0437635
-0.0496388
-0.0541533
-0.0571993
-0.0587682
-0.0588753
-0.0575561
-0.0549143
-0.0511758
-0.0466547
-0.0419646
-0.0362994
-0.0302256
-0.0228954
-0.0154674
-0.0157217
-0.0177768
-0.0217457
-0.0273889
-0.0340307
-0.0407494
-0.0467392
-0.0514913
-0.0547665
-0.0564804
-0.0566214
-0.0551998
-0.0523514
-0.0483448
-0.0435807
-0.0387298
-0.0331408
-0.0280991
-0.0202788
-0.015574
-0.0152978
-0.0163376
-0.0190872
-0.0236524
-0.0296332
-0.0361705
-0.0423345
-0.0474262
-0.0510378
-0.0529785
-0.0531818
-0.0516893
-0.04859
-0.0442255
-0.0390529
-0.0337812
-0.0280711
-0.0242311
-0.0143846
-0.0152764
-0.0145497
-0.0142604
-0.0154255
-0.0186843
-0.0238939
-0.0302305
-0.0366136
-0.0421365
-0.0461998
-0.0484878
-0.0488649
-0.0473517
-0.0440197
-0.0392479
-0.0335182
-0.0276408
-0.0216291
-0.0180533
-0.00383278
-0.0146616
-0.0136178
-0.0117065
-0.0110807
-0.0129532
-0.0173798
-0.0235333
-0.0301695
-0.0361922
-0.0408103
-0.0435774
-0.0442604
-0.0428494
-0.0393754
-0.0341845
-0.0276893
-0.0206821
-0.0132762
-0.00678591
0.0160529
-0.0145829
-0.0126568
-0.00864818
-0.00623437
-0.00690981
-0.0107455
-0.0168174
-0.0237393
-0.0302978
-0.0355383
-0.0389025
-0.040034
-0.0388766
-0.0354472
-0.0298953
-0.0222756
-0.0128726
-0.000688412
0.0166947
0.0570636
-0.0117943
-0.0118304
-0.00572588
-0.00177487
-0.00176486
-0.00540453
-0.0115749
-0.0188144
-0.0258748
-0.0316866
-0.0356614
-0.0373609
-0.0366844
-0.0333546
-0.0272237
-0.0175414
-0.00314837
0.0204899
0.0607039
0.129821
-0.0295165
-0.0106294
-0.000608688
0.00308092
0.00244833
-0.00155686
-0.00799918
-0.0155529
-0.0229755
-0.029173
-0.033531
-0.035587
-0.0352003
-0.0319551
-0.0252271
-0.0128598
0.00942252
0.0511712
0.122878
0.226076
)
;

boundaryField
{
    movingWall
    {
        type            zeroGradient;
    }
    fixedWalls
    {
        type            zeroGradient;
    }
    frontAndBack
    {
        type            empty;
    }
}


// ************************************************************************* //
