/*--------------------------------*- C++ -*----------------------------------*\
| =========                 |                                                 |
| \\      /  F ield         | OpenFOAM: The Open Source CFD Toolbox           |
|  \\    /   O peration     | Version:  2212                                  |
|   \\  /    A nd           | Website:  www.openfoam.com                      |
|    \\/     M anipulation  |                                                 |
\*---------------------------------------------------------------------------*/
FoamFile
{
    version     2.0;
    format      ascii;
    arch        "LSB;label=32;scalar=64";
    class       volVectorField;
    location    "10.9";
    object      U;
}
// * * * * * * * * * * * * * * * * * * * * * * * * * * * * * * * * * * * * * //

dimensions      [0 1 -1 0 0 0 0];

internalField   nonuniform List<vector> 
400
(
(0.00168175 -0.00168384 0)
(0.00483866 -0.00189229 0)
(0.00659119 -0.00120075 0)
(0.00567488 -0.000575137 0)
(0.00157226 0.000183977 0)
(-0.00682916 0.00173939 0)
(-0.0206084 0.00478642 0)
(-0.0395417 0.00873621 0)
(-0.0608122 0.0112928 0)
(-0.0791389 0.0105126 0)
(-0.0898142 0.00677451 0)
(-0.0904645 0.00166888 0)
(-0.0802268 -0.00361666 0)
(-0.0599942 -0.00827516 0)
(-0.0335207 -0.0108473 0)
(-0.00529211 -0.00979536 0)
(0.0167245 -0.00477298 0)
(0.0244712 0.00277701 0)
(0.016179 0.00647239 0)
(0.00431659 0.00471721 0)
(0.00172051 -0.00506536 0)
(0.00316275 -0.0040326 0)
(-0.000416958 0.000587708 0)
(-0.0113298 0.00644174 0)
(-0.0314263 0.0140503 0)
(-0.0611508 0.0237745 0)
(-0.0968486 0.0330625 0)
(-0.131462 0.0370936 0)
(-0.158976 0.0335181 0)
(-0.176108 0.0234016 0)
(-0.181455 0.00910914 0)
(-0.175083 -0.00699059 0)
(-0.157564 -0.0231751 0)
(-0.129653 -0.0369152 0)
(-0.0936156 -0.0445668 0)
(-0.0521945 -0.0418395 0)
(-0.0113996 -0.0263343 0)
(0.0168904 -0.00127864 0)
(0.0178726 0.0162244 0)
(0.0055423 0.0148203 0)
(-0.000239554 -0.0057807 0)
(-0.00538114 0.000801518 0)
(-0.0196097 0.0142995 0)
(-0.044505 0.0312369 0)
(-0.0803435 0.0494473 0)
(-0.122209 0.064323 0)
(-0.162356 0.0705491 0)
(-0.19528 0.0660308 0)
(-0.218873 0.0521924 0)
(-0.232542 0.0315343 0)
(-0.236297 0.00641588 0)
(-0.230811 -0.0211148 0)
(-0.216397 -0.0488753 0)
(-0.19255 -0.0732298 0)
(-0.159011 -0.0890296 0)
(-0.115745 -0.089232 0)
(-0.0645642 -0.06703 0)
(-0.013821 -0.0226641 0)
(0.00948175 0.0179195 0)
(0.00415547 0.0235807 0)
(-0.00347203 0.000452949 0)
(-0.0175154 0.0172406 0)
(-0.043518 0.0415024 0)
(-0.0796862 0.068198 0)
(-0.122966 0.0911654 0)
(-0.165862 0.103854 0)
(-0.201935 0.102908 0)
(-0.22926 0.0896751 0)
(-0.248101 0.0673283 0)
(-0.259056 0.0385803 0)
(-0.262963 0.0053166 0)
(-0.26063 -0.0311195 0)
(-0.251997 -0.0684589 0)
(-0.236017 -0.103749 0)
(-0.210703 -0.131496 0)
(-0.173354 -0.142896 0)
(-0.121407 -0.125769 0)
(-0.0568459 -0.0708538 0)
(-0.000986773 0.00356733 0)
(0.00474231 0.0282415 0)
(-0.0066631 0.014783 0)
(-0.0287317 0.044113 0)
(-0.0632944 0.0770997 0)
(-0.10447 0.108928 0)
(-0.147293 0.131219 0)
(-0.184596 0.138207 0)
(-0.212937 0.129513 0)
(-0.232722 0.108753 0)
(-0.245241 0.0798016 0)
(-0.252218 0.045449 0)
(-0.255337 0.00723953 0)
(-0.255518 -0.0340008 0)
(-0.252538 -0.0770884 0)
(-0.245855 -0.120694 0)
(-0.232658 -0.160831 0)
(-0.208333 -0.189042 0)
(-0.166829 -0.18999 0)
(-0.103454 -0.142884 0)
(-0.0221828 -0.0388534 0)
(0.00738222 0.0271024 0)
(-0.00851162 0.0348753 0)
(-0.0351807 0.0766447 0)
(-0.0731001 0.114964 0)
(-0.113276 0.147717 0)
(-0.150544 0.166051 0)
(-0.17941 0.165987 0)
(-0.198937 0.149776 0)
(-0.210685 0.122515 0)
(-0.216636 0.0885514 0)
(-0.219269 0.0508729 0)
(-0.220538 0.0109547 0)
(-0.221439 -0.030761 0)
(-0.22217 -0.0747266 0)
(-0.222842 -0.1213 0)
(-0.221268 -0.169247 0)
(-0.212364 -0.213079 0)
(-0.188042 -0.238607 0)
(-0.139699 -0.218556 0)
(-0.0628537 -0.118948 0)
(0.00584962 0.0142043 0)
(-0.008294 0.0570103 0)
(-0.0353467 0.110022 0)
(-0.0718467 0.150513 0)
(-0.107092 0.181208 0)
(-0.136732 0.193904 0)
(-0.157141 0.186508 0)
(-0.169054 0.163343 0)
(-0.174594 0.130557 0)
(-0.17617 0.092909 0)
(-0.17627 0.0534131 0)
(-0.176384 0.0133141 0)
(-0.177185 -0.027314 0)
(-0.179216 -0.0695842 0)
(-0.183023 -0.114739 0)
(-0.18797 -0.163873 0)
(-0.190438 -0.215842 0)
(-0.182548 -0.261693 0)
(-0.154296 -0.27521 0)
(-0.0994123 -0.20593 0)
(-0.00890855 -0.0146249 0)
(-0.00613687 0.0776095 0)
(-0.0297983 0.140578 0)
(-0.0614388 0.181254 0)
(-0.0899144 0.208374 0)
(-0.111928 0.214964 0)
(-0.125468 0.200637 0)
(-0.13216 0.171404 0)
(-0.134315 0.134239 0)
(-0.134379 0.0941214 0)
(-0.134281 0.0537546 0)
(-0.134688 0.0138632 0)
(-0.135781 -0.0258928 0)
(-0.138013 -0.0664919 0)
(-0.142075 -0.109112 0)
(-0.148586 -0.155702 0)
(-0.156249 -0.208617 0)
(-0.159102 -0.265942 0)
(-0.146771 -0.308176 0)
(-0.11227 -0.277245 0)
(-0.03097 -0.0753456 0)
(-0.00273093 0.0936322 0)
(-0.020424 0.165674 0)
(-0.0451644 0.20565 0)
(-0.0663644 0.228646 0)
(-0.0816367 0.229609 0)
(-0.0901302 0.209622 0)
(-0.093765 0.175869 0)
(-0.0946794 0.13583 0)
(-0.0949589 0.0944813 0)
(-0.0957559 0.0540364 0)
(-0.0971066 0.0145942 0)
(-0.0989167 -0.0245891 0)
(-0.101352 -0.0642433 0)
(-0.104918 -0.105018 0)
(-0.110763 -0.148501 0)
(-0.119622 -0.198622 0)
(-0.128373 -0.259849 0)
(-0.126543 -0.32351 0)
(-0.107494 -0.334813 0)
(-0.0373551 -0.163464 0)
(0.00121932 0.102781 0)
(-0.00894644 0.183519 0)
(-0.0256529 0.223209 0)
(-0.0396554 0.242834 0)
(-0.0491375 0.2396 0)
(-0.0540124 0.215626 0)
(-0.0559838 0.178869 0)
(-0.0566983 0.137171 0)
(-0.0576607 0.0954135 0)
(-0.0594037 0.0552767 0)
(-0.0616973 0.0163107 0)
(-0.0643979 -0.0224955 0)
(-0.0674965 -0.0617479 0)
(-0.0711714 -0.101645 0)
(-0.0763544 -0.142854 0)
(-0.0846155 -0.188998 0)
(-0.0960815 -0.248418 0)
(-0.100663 -0.324378 0)
(-0.0951825 -0.372281 0)
(-0.0309264 -0.24262 0)
(0.0051192 0.103948 0)
(0.00295743 0.193122 0)
(-0.00539181 0.233706 0)
(-0.0125103 0.250868 0)
(-0.0169024 0.244785 0)
(-0.0187904 0.218567 0)
(-0.0194795 0.180505 0)
(-0.0200087 0.138428 0)
(-0.0213076 0.0969689 0)
(-0.0235439 0.0574277 0)
(-0.0264331 0.019083 0)
(-0.0299167 -0.0191702 0)
(-0.0340113 -0.0579861 0)
(-0.0386551 -0.0974154 0)
(-0.0443935 -0.137375 0)
(-0.052453 -0.180247 0)
(-0.0657691 -0.235719 0)
(-0.0742266 -0.318158 0)
(-0.0812034 -0.396787 0)
(-0.0229435 -0.307182 0)
(0.00845915 0.0974734 0)
(0.0142231 0.194115 0)
(0.0141061 0.23723 0)
(0.0137116 0.25365 0)
(0.0143345 0.246571 0)
(0.0155317 0.219864 0)
(0.0163914 0.181814 0)
(0.0164452 0.140098 0)
(0.0153075 0.0991568 0)
(0.0130305 0.0602279 0)
(0.00986275 0.0226274 0)
(0.00575435 -0.014754 0)
(0.000562278 -0.0527006 0)
(-0.00556376 -0.0913083 0)
(-0.0130321 -0.130205 0)
(-0.0219793 -0.170388 0)
(-0.0377199 -0.220765 0)
(-0.0487298 -0.304519 0)
(-0.0679047 -0.40853 0)
(-0.0144592 -0.360064 0)
(0.0103311 0.0844926 0)
(0.0234229 0.186519 0)
(0.0310879 0.233353 0)
(0.0370187 0.250195 0)
(0.0426816 0.243357 0)
(0.0476375 0.217572 0)
(0.0510758 0.180808 0)
(0.0527525 0.140401 0)
(0.0526219 0.100637 0)
(0.0508933 0.0628255 0)
(0.047784 0.026458 0)
(0.0431759 -0.0095218 0)
(0.0369017 -0.0460047 0)
(0.0290853 -0.0831452 0)
(0.0189288 -0.120575 0)
(0.00760183 -0.15852 0)
(-0.0118141 -0.204478 0)
(-0.0242362 -0.286521 0)
(-0.0558426 -0.411036 0)
(-0.00613711 -0.401911 0)
(0.00987985 0.0672389 0)
(0.0290353 0.170708 0)
(0.0443638 0.22226 0)
(0.0569087 0.24136 0)
(0.0682049 0.236434 0)
(0.0778944 0.213072 0)
(0.0851181 0.178778 0)
(0.0895751 0.140436 0)
(0.091342 0.102273 0)
(0.0907183 0.0658335 0)
(0.0880337 0.0309805 0)
(0.0829845 -0.00330308 0)
(0.075469 -0.0375507 0)
(0.0657754 -0.0723373 0)
(0.0525212 -0.107467 0)
(0.0375851 -0.142818 0)
(0.0131401 -0.184304 0)
(8.64851e-05 -0.263282 0)
(-0.0447944 -0.406735 0)
(0.00276659 -0.436286 0)
(0.00693107 0.0493982 0)
(0.0293705 0.148981 0)
(0.0511233 0.203667 0)
(0.0700059 0.22459 0)
(0.0874858 0.221734 0)
(0.103184 0.201576 0)
(0.115858 0.17098 0)
(0.124827 0.136088 0)
(0.130001 0.100888 0)
(0.131624 0.0670564 0)
(0.129961 0.0348445 0)
(0.125037 0.00342808 0)
(0.116405 -0.027473 0)
(0.104671 -0.0587163 0)
(0.0875733 -0.0903438 0)
(0.0683794 -0.122965 0)
(0.0383099 -0.160885 0)
(0.023868 -0.237181 0)
(-0.0344357 -0.398981 0)
(0.0134765 -0.464442 0)
(0.00238757 0.0346258 0)
(0.0236459 0.123909 0)
(0.0509691 0.179969 0)
(0.0767068 0.202973 0)
(0.101378 0.202664 0)
(0.124266 0.186263 0)
(0.143725 0.160205 0)
(0.158538 0.129772 0)
(0.168288 0.0985767 0)
(0.173181 0.0683074 0)
(0.173157 0.0395615 0)
(0.168929 0.0119336 0)
(0.159091 -0.0149182 0)
(0.145355 -0.0417275 0)
(0.124047 -0.0687739 0)
(0.100501 -0.0975784 0)
(0.0646393 -0.132734 0)
(0.047016 -0.207474 0)
(-0.0226997 -0.387094 0)
(0.0285352 -0.485565 0)
(-0.00342642 0.0286113 0)
(0.0100754 0.101504 0)
(0.0371208 0.148709 0)
(0.0689923 0.16948 0)
(0.101893 0.170703 0)
(0.13362 0.158412 0)
(0.161624 0.137976 0)
(0.184175 0.11357 0)
(0.200229 0.0882801 0)
(0.210157 0.063635 0)
(0.213083 0.0403805 0)
(0.21083 0.0183993 0)
(0.200564 -0.00268342 0)
(0.185929 -0.0233239 0)
(0.161108 -0.0439929 0)
(0.134484 -0.0677566 0)
(0.0929438 -0.101708 0)
(0.069884 -0.180025 0)
(-0.00436321 -0.370058 0)
(0.0521634 -0.491644 0)
(-0.0140131 0.0185152 0)
(-0.00751619 0.0881756 0)
(0.019224 0.124199 0)
(0.0564638 0.137329 0)
(0.097625 0.136923 0)
(0.138015 0.127742 0)
(0.174276 0.113084 0)
(0.204128 0.0953037 0)
(0.226028 0.0768287 0)
(0.241126 0.0586772 0)
(0.247162 0.0418016 0)
(0.248079 0.0261047 0)
(0.238737 0.0117381 0)
(0.226918 -0.00205526 0)
(0.201913 -0.0160973 0)
(0.177922 -0.0350344 0)
(0.133567 -0.0678127 0)
(0.107846 -0.146007 0)
(0.0374752 -0.32612 0)
(0.0923687 -0.455871 0)
(-0.10602 0.0824165 0)
(-0.0777608 0.0689896 0)
(-0.0485677 0.0733713 0)
(0.00378428 0.0778931 0)
(0.0573044 0.0782282 0)
(0.110042 0.0739645 0)
(0.157216 0.066629 0)
(0.199584 0.0572237 0)
(0.231699 0.0475466 0)
(0.259854 0.0378888 0)
(0.275583 0.02922 0)
(0.290738 0.0212324 0)
(0.291089 0.0144736 0)
(0.295197 0.00808932 0)
(0.278891 0.00112038 0)
(0.271671 -0.010017 0)
(0.232356 -0.0355715 0)
(0.218146 -0.0954206 0)
(0.150209 -0.229723 0)
(0.170672 -0.341455 0)
(0.129969 0.103744 0)
(0.158319 0.075227 0)
(0.212163 0.0532266 0)
(0.270671 0.041622 0)
(0.323248 0.0359126 0)
(0.375692 0.0319485 0)
(0.42029 0.0289165 0)
(0.465611 0.025581 0)
(0.498709 0.0229029 0)
(0.533961 0.0197104 0)
(0.5534 0.0175474 0)
(0.57921 0.0146093 0)
(0.585347 0.0131643 0)
(0.603685 0.0103452 0)
(0.595103 0.0093828 0)
(0.603602 0.00499916 0)
(0.567792 8.87171e-05 0)
(0.547612 -0.0183162 0)
(0.435689 -0.0504144 0)
(0.336753 -0.101386 0)
)
;

boundaryField
{
    movingWall
    {
        type            fixedValue;
        value           uniform (1 0 0);
    }
    fixedWalls
    {
        type            noSlip;
    }
    frontAndBack
    {
        type            empty;
    }
}


// ************************************************************************* //
