/*--------------------------------*- C++ -*----------------------------------*\
| =========                 |                                                 |
| \\      /  F ield         | OpenFOAM: The Open Source CFD Toolbox           |
|  \\    /   O peration     | Version:  2212                                  |
|   \\  /    A nd           | Website:  www.openfoam.com                      |
|    \\/     M anipulation  |                                                 |
\*---------------------------------------------------------------------------*/
FoamFile
{
    version     2.0;
    format      ascii;
    arch        "LSB;label=32;scalar=64";
    class       surfaceScalarField;
    location    "1.9";
    object      phi;
}
// * * * * * * * * * * * * * * * * * * * * * * * * * * * * * * * * * * * * * //

dimensions      [0 3 -1 0 0 0 0];

oriented        oriented;

internalField   nonuniform List<scalar> 
760
(
8.79079e-08
-8.79107e-08
1.4624e-07
-5.83318e-08
1.28231e-07
1.80093e-08
1.30439e-08
1.15188e-07
-2.32636e-07
2.45681e-07
-6.558e-07
4.23164e-07
-1.28336e-06
6.27561e-07
-2.07174e-06
7.88378e-07
-2.88512e-06
8.13378e-07
-3.53717e-06
6.52053e-07
-3.86534e-06
3.28167e-07
-3.77585e-06
-8.94842e-08
-3.18589e-06
-5.89961e-07
-2.18503e-06
-1.00086e-06
-9.68051e-07
-1.21698e-06
1.43093e-07
-1.11114e-06
8.24181e-07
-6.81088e-07
8.34841e-07
-1.06605e-08
3.83904e-07
4.50937e-07
3.83904e-07
2.11373e-08
-1.09048e-07
-1.00135e-07
6.29407e-08
-4.28748e-07
3.46622e-07
-1.03732e-06
7.23762e-07
-1.98041e-06
1.18877e-06
-3.23599e-06
1.67875e-06
-4.65819e-06
2.04975e-06
-6.01108e-06
2.14127e-06
-7.0725e-06
1.87479e-06
-7.70091e-06
1.28047e-06
-7.82935e-06
4.56605e-07
-7.4135e-06
-5.05332e-07
-6.47922e-06
-1.52425e-06
-5.05408e-06
-2.426e-06
-3.26924e-06
-3.00182e-06
-1.40045e-06
-2.97993e-06
7.24835e-08
-2.15402e-06
7.07834e-07
-6.46011e-07
4.49635e-07
7.09136e-07
8.33539e-07
-1.72994e-07
6.3947e-08
-6.29073e-07
5.1902e-07
-1.41051e-06
1.12806e-06
-2.57446e-06
1.88771e-06
-4.08991e-06
2.70422e-06
-5.78403e-06
3.37287e-06
-7.40514e-06
3.67086e-06
-8.75058e-06
3.48671e-06
-9.72041e-06
2.84462e-06
-1.02777e-05
1.83776e-06
-1.03818e-05
5.60727e-07
-1.00304e-05
-8.56732e-07
-9.2286e-06
-2.32606e-06
-7.93158e-06
-3.72303e-06
-6.12423e-06
-4.80917e-06
-3.91085e-06
-5.19331e-06
-1.65665e-06
-4.40823e-06
-7.56877e-08
-2.22697e-06
2.73684e-07
3.59764e-07
1.10722e-06
-4.2097e-07
4.84917e-07
-1.26739e-06
1.36544e-06
-2.4783e-06
2.33896e-06
-4.04186e-06
3.45127e-06
-5.82246e-06
4.48482e-06
-7.587e-06
5.13741e-06
-9.12331e-06
5.20717e-06
-1.03247e-05
4.68812e-06
-1.11765e-05
3.69639e-06
-1.16922e-05
2.35344e-06
-1.18566e-05
7.25184e-07
-1.169e-05
-1.02336e-06
-1.11847e-05
-2.83141e-06
-1.02464e-05
-4.66125e-06
-8.76059e-06
-6.29501e-06
-6.62052e-06
-7.33337e-06
-3.90187e-06
-7.12688e-06
-1.20495e-06
-4.9239e-06
1.16982e-07
-9.62165e-07
1.22421e-06
-6.6039e-07
1.14531e-06
-1.82415e-06
2.5292e-06
-3.31142e-06
3.82623e-06
-5.03295e-06
5.1728e-06
-6.79807e-06
6.24994e-06
-8.38994e-06
6.72928e-06
-9.67475e-06
6.49198e-06
-1.06227e-05
5.6361e-06
-1.12626e-05
4.33629e-06
-1.16454e-05
2.73619e-06
-1.18315e-05
9.11253e-07
-1.18369e-05
-1.01789e-06
-1.16528e-05
-3.01558e-06
-1.11997e-05
-5.11433e-06
-1.03069e-05
-7.18774e-06
-8.71368e-06
-8.92663e-06
-6.17805e-06
-9.66251e-06
-2.8553e-06
-8.24664e-06
-2.23257e-07
-3.59421e-06
1.00095e-06
-8.09315e-07
1.95462e-06
-2.13766e-06
3.85755e-06
-3.697e-06
5.38557e-06
-5.34476e-06
6.82055e-06
-6.88948e-06
7.79466e-06
-8.16747e-06
8.00727e-06
-9.10967e-06
7.43419e-06
-9.73407e-06
6.2605e-06
-1.01028e-05
4.70507e-06
-1.02989e-05
2.93224e-06
-1.04256e-05
1.03793e-06
-1.05191e-05
-9.24353e-07
-1.05692e-05
-2.96552e-06
-1.0553e-05
-5.13055e-06
-1.03222e-05
-7.41849e-06
-9.55988e-06
-9.68897e-06
-7.81091e-06
-1.14115e-05
-4.74207e-06
-1.13155e-05
-1.01597e-06
-7.32031e-06
-1.50238e-08
-8.23952e-07
2.77857e-06
-2.13901e-06
5.17261e-06
-3.58798e-06
6.83454e-06
-5.00662e-06
8.23919e-06
-6.23725e-06
9.0253e-06
-7.17076e-06
8.94078e-06
-7.78554e-06
8.04898e-06
-8.12964e-06
6.6046e-06
-8.28627e-06
4.8617e-06
-8.34772e-06
2.99369e-06
-8.4004e-06
1.09062e-06
-8.49102e-06
-8.33731e-07
-8.63185e-06
-2.82468e-06
-8.84182e-06
-4.92058e-06
-9.06301e-06
-7.1973e-06
-9.05135e-06
-9.70062e-06
-8.29105e-06
-1.21718e-05
-6.08758e-06
-1.3519e-05
-2.17403e-06
-1.12339e-05
-2.18906e-06
-7.02695e-07
3.48127e-06
-1.8517e-06
6.32162e-06
-3.06955e-06
8.05239e-06
-4.19035e-06
9.35999e-06
-5.10053e-06
9.93548e-06
-5.73938e-06
9.57963e-06
-6.11737e-06
8.42697e-06
-6.2975e-06
6.78472e-06
-6.36488e-06
4.92909e-06
-6.39815e-06
3.02696e-06
-6.44397e-06
1.13643e-06
-6.52249e-06
-7.55214e-07
-6.65912e-06
-2.68805e-06
-6.89768e-06
-4.68202e-06
-7.264e-06
-6.83098e-06
-7.65974e-06
-9.30489e-06
-7.64646e-06
-1.21851e-05
-6.40887e-06
-1.47565e-05
-3.28482e-06
-1.43579e-05
-5.47388e-06
-4.77805e-07
3.95907e-06
-1.35847e-06
7.20229e-06
-2.28446e-06
8.97837e-06
-3.09621e-06
1.01718e-05
-3.72115e-06
1.05604e-05
-4.13737e-06
9.99585e-06
-4.37344e-06
8.66303e-06
-4.49159e-06
6.90288e-06
-4.56243e-06
4.99992e-06
-4.63511e-06
3.09964e-06
-4.72231e-06
1.22364e-06
-4.81839e-06
-6.59139e-07
-4.93957e-06
-2.56687e-06
-5.12681e-06
-4.49479e-06
-5.461e-06
-6.49679e-06
-5.96567e-06
-8.80022e-06
-6.38734e-06
-1.17634e-05
-5.94634e-06
-1.51975e-05
-3.74572e-06
-1.65585e-05
-9.2196e-06
-1.90677e-07
4.14975e-06
-7.46764e-07
7.75838e-06
-1.35847e-06
9.59008e-06
-1.87485e-06
1.06881e-05
-2.25413e-06
1.09397e-05
-2.50241e-06
1.02441e-05
-2.65394e-06
8.81457e-06
-2.75743e-06
7.00636e-06
-2.85825e-06
5.10075e-06
-2.97979e-06
3.22118e-06
-3.1185e-06
1.36235e-06
-3.25841e-06
-5.19228e-07
-3.39848e-06
-2.42679e-06
-3.56063e-06
-4.33264e-06
-3.82554e-06
-6.23188e-06
-4.30949e-06
-8.31626e-06
-4.93968e-06
-1.11332e-05
-5.05179e-06
-1.50854e-05
-3.48734e-06
-1.8123e-05
-1.27069e-05
1.04363e-07
4.04539e-06
-9.92898e-08
7.96203e-06
-4.03345e-07
9.89414e-06
-6.48221e-07
1.0933e-05
-8.08746e-07
1.11002e-05
-9.06625e-07
1.0342e-05
-9.78849e-07
8.88679e-06
-1.06027e-06
7.08778e-06
-1.17125e-06
5.21173e-06
-1.31567e-06
3.3656e-06
-1.48772e-06
1.53439e-06
-1.67762e-06
-3.29325e-07
-1.8741e-06
-2.23031e-06
-2.08176e-06
-4.12498e-06
-2.34758e-06
-5.96606e-06
-2.80784e-06
-7.856e-06
-3.5333e-06
-1.04078e-05
-4.02023e-06
-1.45985e-05
-3.00984e-06
-1.91334e-05
-1.57168e-05
3.4712e-07
3.69827e-06
4.86528e-07
7.82262e-06
5.11038e-07
9.86963e-06
5.46293e-07
1.08977e-05
6.07144e-07
1.10394e-05
6.62744e-07
1.02864e-05
6.80569e-07
8.86896e-06
6.4535e-07
7.123e-06
5.56717e-07
5.30036e-06
4.21031e-07
3.50129e-06
2.42139e-07
1.71328e-06
1.87297e-08
-1.05914e-07
-2.50622e-07
-1.96096e-06
-5.61131e-07
-3.81448e-06
-9.29107e-07
-5.59809e-06
-1.42905e-06
-7.35606e-06
-2.2361e-06
-9.60069e-06
-3.00863e-06
-1.3826e-05
-2.49262e-06
-1.96494e-05
-1.82094e-05
5.22815e-07
3.17545e-06
9.75952e-07
7.36949e-06
1.3034e-06
9.54218e-06
1.62162e-06
1.05795e-05
1.92944e-06
1.07316e-05
2.17259e-06
1.00433e-05
2.31892e-06
8.72263e-06
2.3687e-06
7.07322e-06
2.33757e-06
5.33149e-06
2.23721e-06
3.60165e-06
2.0645e-06
1.886e-06
1.8003e-06
1.58283e-07
1.45467e-06
-1.61533e-06
1.02398e-06
-3.38379e-06
5.0976e-07
-5.08386e-06
-1.58469e-07
-6.68783e-06
-1.05296e-06
-8.7062e-06
-2.03767e-06
-1.28413e-05
-1.98527e-06
-1.97018e-05
-2.01947e-05
5.9542e-07
2.58003e-06
1.30267e-06
6.66224e-06
1.91664e-06
8.92821e-06
2.51593e-06
9.98024e-06
3.08791e-06
1.01596e-05
3.56504e-06
9.56613e-06
3.90106e-06
8.38661e-06
4.09238e-06
6.8819e-06
4.15861e-06
5.26527e-06
4.11592e-06
3.64433e-06
3.9602e-06
2.04172e-06
3.67517e-06
4.43314e-07
3.24533e-06
-1.18549e-06
2.67508e-06
-2.81354e-06
1.97059e-06
-4.37937e-06
1.14894e-06
-5.86618e-06
9.65281e-08
-7.65379e-06
-1.12777e-06
-1.1617e-05
-1.51028e-06
-1.93193e-05
-2.17049e-05
5.40265e-07
2.03977e-06
1.37708e-06
5.82542e-06
2.22421e-06
8.08108e-06
3.10052e-06
9.10393e-06
3.967e-06
9.29308e-06
4.73314e-06
8.8e-06
5.32775e-06
7.792e-06
5.72955e-06
6.4801e-06
5.94957e-06
5.04525e-06
6.00343e-06
3.59047e-06
5.89019e-06
2.15497e-06
5.59156e-06
7.41947e-07
5.08186e-06
-6.75793e-07
4.37219e-06
-2.10387e-06
3.46467e-06
-3.47185e-06
2.40624e-06
-4.80774e-06
1.14434e-06
-6.3919e-06
-3.17508e-07
-1.01551e-05
-1.03325e-06
-1.86035e-05
-2.27382e-05
3.6969e-07
1.67008e-06
1.19271e-06
5.0024e-06
2.24497e-06
7.02883e-06
3.40125e-06
7.94764e-06
4.57957e-06
8.11476e-06
5.66454e-06
7.71503e-06
6.55888e-06
6.89765e-06
7.21869e-06
5.8203e-06
7.63805e-06
4.62589e-06
7.82465e-06
3.40386e-06
7.7792e-06
2.20042e-06
7.49442e-06
1.02672e-06
6.91293e-06
-9.42994e-08
6.07225e-06
-1.26318e-06
4.96212e-06
-2.36172e-06
3.65374e-06
-3.49937e-06
2.20513e-06
-4.94328e-06
6.47512e-07
-8.59752e-06
-3.01502e-07
-1.76545e-05
-2.30397e-05
2.11531e-08
1.64893e-06
5.63252e-07
4.4603e-06
1.69305e-06
5.89902e-06
3.12533e-06
6.51537e-06
4.65813e-06
6.58196e-06
6.11288e-06
6.26028e-06
7.36029e-06
5.65024e-06
8.33799e-06
4.8426e-06
9.01606e-06
3.94781e-06
9.39243e-06
3.02749e-06
9.45646e-06
2.1364e-06
9.2076e-06
1.27557e-06
8.64093e-06
4.72374e-07
7.70797e-06
-3.30223e-07
6.46812e-06
-1.12187e-06
4.97945e-06
-2.0107e-06
3.42228e-06
-3.38611e-06
1.92472e-06
-7.09996e-06
5.26754e-07
-1.62565e-05
-2.25129e-05
-4.45913e-07
2.09484e-06
-3.59072e-08
4.05029e-06
1.06704e-06
4.79608e-06
2.68946e-06
4.89295e-06
4.50912e-06
4.76229e-06
6.2699e-06
4.4995e-06
7.81353e-06
4.10661e-06
9.06743e-06
3.5887e-06
9.98262e-06
3.03262e-06
1.05575e-05
2.45262e-06
1.078e-05
1.9139e-06
1.06651e-05
1.3905e-06
1.02069e-05
9.3054e-07
9.41954e-06
4.57141e-07
8.3389e-06
-4.12316e-08
7.01205e-06
-6.83859e-07
5.65952e-06
-2.03358e-06
4.10961e-06
-5.55005e-06
1.90856e-06
-1.40555e-05
-2.06044e-05
-4.10537e-06
6.20021e-06
-3.67646e-06
3.62138e-06
-1.6121e-06
2.73172e-06
7.74819e-07
2.50603e-06
3.14193e-06
2.39519e-06
5.39738e-06
2.24405e-06
7.44451e-06
2.05948e-06
9.21178e-06
1.82143e-06
1.06562e-05
1.58825e-06
1.17804e-05
1.32841e-06
1.25833e-05
1.11092e-06
1.30966e-05
8.77266e-07
1.33156e-05
7.11513e-07
1.32679e-05
5.04876e-07
1.29016e-05
3.24996e-07
1.226e-05
-4.22376e-08
1.13968e-05
-1.17039e-06
9.86237e-06
-4.0156e-06
5.53361e-06
-9.72673e-06
-1.50708e-05
6.20021e-06
9.82159e-06
1.25533e-05
1.50593e-05
1.74545e-05
1.96986e-05
2.17581e-05
2.35795e-05
2.51677e-05
2.64961e-05
2.76071e-05
2.84843e-05
2.91958e-05
2.97007e-05
3.00257e-05
2.99835e-05
2.88131e-05
2.47975e-05
1.50708e-05
)
;

boundaryField
{
    movingWall
    {
        type            calculated;
        value           uniform 0;
    }
    fixedWalls
    {
        type            calculated;
        value           uniform 0;
    }
    frontAndBack
    {
        type            empty;
        value           nonuniform List<scalar> 0();
    }
}


// ************************************************************************* //
