/*--------------------------------*- C++ -*----------------------------------*\
| =========                 |                                                 |
| \\      /  F ield         | OpenFOAM: The Open Source CFD Toolbox           |
|  \\    /   O peration     | Version:  2212                                  |
|   \\  /    A nd           | Website:  www.openfoam.com                      |
|    \\/     M anipulation  |                                                 |
\*---------------------------------------------------------------------------*/
FoamFile
{
    version     2.0;
    format      ascii;
    arch        "LSB;label=32;scalar=64";
    class       surfaceScalarField;
    location    "5.7";
    object      phi;
}
// * * * * * * * * * * * * * * * * * * * * * * * * * * * * * * * * * * * * * //

dimensions      [0 3 -1 0 0 0 0];

oriented        oriented;

internalField   nonuniform List<scalar> 
760
(
1.55715e-07
-1.55663e-07
2.92756e-07
-1.37042e-07
3.08889e-07
-1.61339e-08
1.82587e-07
1.26301e-07
-1.21126e-07
3.03714e-07
-6.6603e-07
5.44904e-07
-1.48412e-06
8.18094e-07
-2.48826e-06
1.00414e-06
-3.47666e-06
9.88395e-07
-4.21635e-06
7.39688e-07
-4.54045e-06
3.24102e-07
-4.35152e-06
-1.88928e-07
-3.59354e-06
-7.57979e-07
-2.38078e-06
-1.21276e-06
-9.43444e-07
-1.43734e-06
3.43554e-07
-1.287e-06
1.08644e-06
-7.42884e-07
1.03113e-06
5.53078e-08
4.60342e-07
5.70788e-07
4.60342e-07
1.24341e-07
-2.80004e-07
7.33086e-08
-8.60078e-08
-2.98237e-07
3.55412e-07
-1.07923e-06
9.07292e-07
-2.31448e-06
1.53897e-06
-3.92353e-06
2.15395e-06
-5.65607e-06
2.55064e-06
-7.19914e-06
2.54721e-06
-8.32828e-06
2.11753e-06
-8.93372e-06
1.34512e-06
-8.96848e-06
3.58867e-07
-8.40999e-06
-7.47419e-07
-7.28952e-06
-1.87845e-06
-5.64033e-06
-2.86195e-06
-3.60641e-06
-3.47125e-06
-1.4925e-06
-3.40091e-06
1.75585e-07
-2.41097e-06
8.56691e-07
-6.25799e-07
5.24833e-07
9.02644e-07
9.85175e-07
-1.28159e-07
-1.51846e-07
-6.34452e-07
4.20286e-07
-1.62437e-06
1.34533e-06
-3.13869e-06
2.4216e-06
-5.05176e-06
3.45203e-06
-7.06466e-06
4.16685e-06
-8.86241e-06
4.34839e-06
-1.0265e-05
3.94982e-06
-1.12208e-05
3.07331e-06
-1.1722e-05
1.84635e-06
-1.17168e-05
3.53647e-07
-1.12591e-05
-1.20516e-06
-1.03282e-05
-2.80928e-06
-8.87006e-06
-4.32013e-06
-6.86466e-06
-5.47665e-06
-4.40117e-06
-5.8644e-06
-1.87895e-06
-4.93319e-06
-8.75673e-08
-2.41719e-06
2.94236e-07
5.2084e-07
1.27941e-06
-5.00312e-07
3.48465e-07
-1.55872e-06
1.47869e-06
-3.11596e-06
2.90257e-06
-5.07469e-06
4.38034e-06
-7.17523e-06
5.55258e-06
-9.11031e-06
6.10193e-06
-1.06779e-05
5.91595e-06
-1.18353e-05
5.10729e-06
-1.26108e-05
3.84873e-06
-1.30389e-05
2.27445e-06
-1.31044e-05
4.1919e-07
-1.28659e-05
-1.44364e-06
-1.22849e-05
-3.39032e-06
-1.12594e-05
-5.3456e-06
-9.65865e-06
-7.07743e-06
-7.35787e-06
-8.16519e-06
-4.39553e-06
-7.89553e-06
-1.37796e-06
-5.43475e-06
1.20256e-07
-9.77379e-07
1.39967e-06
-8.60824e-07
1.20929e-06
-2.35837e-06
2.97624e-06
-4.22635e-06
4.77055e-06
-6.27024e-06
6.42422e-06
-8.20943e-06
7.49177e-06
-9.8215e-06
7.71401e-06
-1.10297e-05
7.12415e-06
-1.18605e-05
5.93808e-06
-1.23757e-05
4.36397e-06
-1.26482e-05
2.54695e-06
-1.27688e-05
5.39742e-07
-1.27242e-05
-1.48826e-06
-1.25053e-05
-3.60914e-06
-1.20332e-05
-5.81775e-06
-1.11213e-05
-7.98932e-06
-9.48171e-06
-9.80478e-06
-6.81519e-06
-1.0562e-05
-3.22037e-06
-9.02957e-06
-2.61536e-07
-3.93622e-06
1.13813e-06
-1.0851e-06
2.29439e-06
-2.7797e-06
4.67084e-06
-4.67011e-06
6.66096e-06
-6.52484e-06
8.27895e-06
-8.11991e-06
9.08684e-06
-9.32432e-06
8.91842e-06
-1.01339e-05
7.93371e-06
-1.06136e-05
6.41782e-06
-1.08539e-05
4.60425e-06
-1.09547e-05
2.64772e-06
-1.10374e-05
6.22512e-07
-1.1089e-05
-1.43672e-06
-1.11252e-05
-3.57294e-06
-1.11168e-05
-5.82608e-06
-1.09102e-05
-8.19596e-06
-1.0178e-05
-1.0537e-05
-8.42607e-06
-1.2314e-05
-5.239e-06
-1.22166e-05
-1.15782e-06
-8.0174e-06
-1.9689e-08
-1.10871e-06
3.40311e-06
-2.75363e-06
6.31575e-06
-4.44838e-06
8.35571e-06
-5.9814e-06
9.81196e-06
-7.19274e-06
1.02982e-05
-8.01993e-06
9.74561e-06
-8.50048e-06
8.41425e-06
-8.72133e-06
6.63868e-06
-8.78616e-06
4.66908e-06
-8.79214e-06
2.65369e-06
-8.82193e-06
6.52305e-07
-8.89409e-06
-1.36455e-06
-9.02847e-06
-3.43856e-06
-9.23644e-06
-5.61812e-06
-9.4613e-06
-7.9711e-06
-9.47151e-06
-1.05268e-05
-8.74803e-06
-1.30374e-05
-6.53322e-06
-1.44314e-05
-2.42182e-06
-1.21288e-05
-2.44151e-06
-9.34133e-07
4.33724e-06
-2.34347e-06
7.72509e-06
-3.72856e-06
9.7408e-06
-4.90596e-06
1.09894e-05
-5.7747e-06
1.11669e-05
-6.31777e-06
1.02887e-05
-6.59214e-06
8.68862e-06
-6.6888e-06
6.73534e-06
-6.70396e-06
4.68424e-06
-6.71083e-06
2.66057e-06
-6.74534e-06
6.86815e-07
-6.82456e-06
-1.28534e-06
-6.96953e-06
-3.29359e-06
-7.21077e-06
-5.37688e-06
-7.56534e-06
-7.61653e-06
-7.94219e-06
-1.01499e-05
-7.93129e-06
-1.30484e-05
-6.7148e-06
-1.56479e-05
-3.58467e-06
-1.52589e-05
-6.02618e-06
-6.2406e-07
4.9613e-06
-1.68523e-06
8.78626e-06
-2.71717e-06
1.07727e-05
-3.55519e-06
1.18274e-05
-4.14369e-06
1.17554e-05
-4.49268e-06
1.06377e-05
-4.66091e-06
8.85685e-06
-4.72682e-06
6.80124e-06
-4.76285e-06
4.72026e-06
-4.81269e-06
2.71041e-06
-4.88648e-06
7.60609e-07
-4.99065e-06
-1.18116e-06
-5.1351e-06
-3.14914e-06
-5.34847e-06
-5.16351e-06
-5.68581e-06
-7.27919e-06
-6.16055e-06
-9.67519e-06
-6.55449e-06
-1.26544e-05
-6.12656e-06
-1.60759e-05
-3.92266e-06
-1.74628e-05
-9.94885e-06
-2.32172e-07
5.19347e-06
-8.92171e-07
9.44626e-06
-1.56311e-06
1.14437e-05
-2.0921e-06
1.23564e-05
-2.45135e-06
1.21147e-05
-2.66506e-06
1.08514e-05
-2.78139e-06
8.97318e-06
-2.85363e-06
6.87348e-06
-2.92652e-06
4.79316e-06
-3.02214e-06
2.80603e-06
-3.14327e-06
8.8174e-07
-3.28956e-06
-1.03488e-06
-3.46118e-06
-2.97752e-06
-3.67038e-06
-4.95431e-06
-3.96791e-06
-6.98166e-06
-4.43591e-06
-9.20719e-06
-5.02172e-06
-1.20686e-05
-5.12317e-06
-1.59744e-05
-3.55801e-06
-1.9028e-05
-1.35069e-05
1.63671e-07
5.0298e-06
-6.97022e-08
9.67963e-06
-4.02309e-07
1.17763e-05
-6.53003e-07
1.26071e-05
-8.07621e-07
1.22693e-05
-8.97256e-07
1.0941e-05
-9.61329e-07
9.03725e-06
-1.03177e-06
6.94392e-06
-1.1252e-06
4.88659e-06
-1.2494e-06
2.93022e-06
-1.40686e-06
1.0392e-06
-1.59974e-06
-8.41999e-07
-1.82661e-06
-2.75065e-06
-2.08538e-06
-4.69554e-06
-2.40361e-06
-6.66343e-06
-2.87331e-06
-8.73749e-06
-3.559e-06
-1.13829e-05
-4.02514e-06
-1.55083e-05
-3.02559e-06
-2.00275e-05
-1.65325e-05
5.01246e-07
4.52855e-06
6.99207e-07
9.48167e-06
7.42526e-07
1.1733e-05
7.78283e-07
1.25713e-05
8.23347e-07
1.22242e-05
8.52326e-07
1.0912e-05
8.45469e-07
9.04411e-06
7.9453e-07
6.99486e-06
7.00549e-07
4.98057e-06
5.65331e-07
3.06544e-06
3.8383e-07
1.2207e-06
1.49851e-07
-6.0802e-07
-1.38315e-07
-2.46249e-06
-4.87331e-07
-4.34653e-06
-9.01279e-07
-6.24948e-06
-1.42437e-06
-8.21439e-06
-2.20397e-06
-1.06033e-05
-2.95438e-06
-1.47579e-05
-2.46118e-06
-2.05207e-05
-1.89936e-05
7.57421e-07
3.77113e-06
1.35579e-06
8.8833e-06
1.74925e-06
1.13395e-05
2.07941e-06
1.22411e-05
2.35319e-06
1.19505e-05
2.5403e-06
1.07249e-05
2.63249e-06
8.95192e-06
2.6405e-06
6.98685e-06
2.57849e-06
5.04258e-06
2.45325e-06
3.19068e-06
2.25743e-06
1.41652e-06
1.97698e-06
-3.27574e-07
1.6123e-06
-2.0978e-06
1.15832e-06
-3.89255e-06
6.10541e-07
-5.7017e-06
-8.27022e-08
-7.52115e-06
-9.56531e-07
-9.72948e-06
-1.91967e-06
-1.37947e-05
-1.92548e-06
-2.05149e-05
-2.09191e-05
8.72485e-07
2.89865e-06
1.8134e-06
7.94238e-06
2.55648e-06
1.05964e-05
3.19879e-06
1.15988e-05
3.74772e-06
1.14015e-05
4.15994e-06
1.03127e-05
4.41951e-06
8.69235e-06
4.5404e-06
6.86596e-06
4.54573e-06
5.03726e-06
4.45083e-06
3.28557e-06
4.25385e-06
1.61351e-06
3.92258e-06
3.69023e-09
3.47711e-06
-1.65233e-06
2.89194e-06
-3.30738e-06
2.16802e-06
-4.97779e-06
1.32388e-06
-6.67701e-06
2.68636e-07
-8.67424e-06
-9.57746e-07
-1.25683e-05
-1.42705e-06
-2.00456e-05
-2.23462e-05
8.08368e-07
2.09028e-06
1.95834e-06
6.7924e-06
3.0031e-06
9.55166e-06
3.97856e-06
1.06234e-05
4.85765e-06
1.05224e-05
5.57429e-06
9.59606e-06
6.08929e-06
8.17735e-06
6.40563e-06
6.54962e-06
6.54432e-06
4.89857e-06
6.52357e-06
3.30632e-06
6.3419e-06
1.79517e-06
5.99667e-06
3.48922e-07
5.45501e-06
-1.11066e-06
4.72409e-06
-2.57647e-06
3.7959e-06
-4.04959e-06
2.69919e-06
-5.5803e-06
1.39359e-06
-7.36864e-06
-1.53103e-07
-1.10216e-05
-9.12138e-07
-1.92866e-05
-2.32583e-05
5.79139e-07
1.51114e-06
1.76388e-06
5.60766e-06
3.10531e-06
8.21024e-06
4.4594e-06
9.26929e-06
5.7287e-06
9.25314e-06
6.81458e-06
8.51018e-06
7.6516e-06
7.34034e-06
8.2271e-06
5.97411e-06
8.55358e-06
4.57209e-06
8.64799e-06
3.21192e-06
8.5172e-06
1.92595e-06
8.15852e-06
7.07603e-07
7.52801e-06
-4.80145e-07
6.64283e-06
-1.69129e-06
5.49025e-06
-2.89701e-06
4.11118e-06
-4.20123e-06
2.57812e-06
-5.83558e-06
9.61565e-07
-9.40509e-06
-1.42351e-07
-1.81827e-05
-2.34006e-05
1.53028e-07
1.35811e-06
1.04364e-06
4.71705e-06
2.52436e-06
6.72952e-06
4.25018e-06
7.54347e-06
5.97598e-06
7.52734e-06
7.51414e-06
6.97202e-06
8.76198e-06
6.0925e-06
9.68976e-06
5.04633e-06
1.02926e-05
3.96919e-06
1.05823e-05
2.92224e-06
1.05648e-05
1.94345e-06
1.02459e-05
1.02657e-06
9.58004e-06
1.85668e-07
8.5884e-06
-6.99658e-07
7.26164e-06
-1.57024e-06
5.65138e-06
-2.59098e-06
3.91808e-06
-4.10227e-06
2.24432e-06
-7.73133e-06
6.545e-07
-1.65929e-05
-2.27461e-05
-5.18092e-07
1.8762e-06
2.02087e-07
3.99687e-06
1.76181e-06
5.16979e-06
3.83026e-06
5.47503e-06
5.99075e-06
5.36685e-06
7.95671e-06
5.00607e-06
9.59157e-06
4.45764e-06
1.08539e-05
3.784e-06
1.17263e-05
3.09682e-06
1.22251e-05
2.42343e-06
1.23541e-05
1.81447e-06
1.21331e-05
1.24751e-06
1.15858e-05
7.32969e-07
1.06835e-05
2.02708e-07
9.43053e-06
-3.17304e-07
7.89959e-06
-1.06004e-06
6.27646e-06
-2.47914e-06
4.46132e-06
-5.91619e-06
2.0575e-06
-1.4189e-05
-2.06886e-05
-4.18034e-06
6.05655e-06
-3.64308e-06
3.45961e-06
-1.2455e-06
2.77221e-06
1.55685e-06
2.67268e-06
4.30078e-06
2.62291e-06
6.8397e-06
2.46715e-06
9.0603e-06
2.23704e-06
1.09024e-05
1.94194e-06
1.23476e-05
1.65164e-06
1.34229e-05
1.34805e-06
1.41456e-05
1.09178e-06
1.45603e-05
8.32808e-07
1.46549e-05
6.38406e-07
1.44386e-05
4.1897e-07
1.39062e-05
2.15136e-07
1.30732e-05
-2.27093e-07
1.19283e-05
-1.33416e-06
1.01144e-05
-4.10232e-06
5.63866e-06
-9.71331e-06
-1.505e-05
6.05655e-06
9.51616e-06
1.22884e-05
1.4961e-05
1.7584e-05
2.00511e-05
2.22881e-05
2.42301e-05
2.58817e-05
2.72298e-05
2.83215e-05
2.91544e-05
2.97928e-05
3.02117e-05
3.04269e-05
3.01998e-05
2.88656e-05
2.47633e-05
1.505e-05
)
;

boundaryField
{
    movingWall
    {
        type            calculated;
        value           uniform 0;
    }
    fixedWalls
    {
        type            calculated;
        value           uniform 0;
    }
    frontAndBack
    {
        type            empty;
        value           nonuniform List<scalar> 0();
    }
}


// ************************************************************************* //
