/*--------------------------------*- C++ -*----------------------------------*\
| =========                 |                                                 |
| \\      /  F ield         | OpenFOAM: The Open Source CFD Toolbox           |
|  \\    /   O peration     | Version:  2212                                  |
|   \\  /    A nd           | Website:  www.openfoam.com                      |
|    \\/     M anipulation  |                                                 |
\*---------------------------------------------------------------------------*/
FoamFile
{
    version     2.0;
    format      ascii;
    arch        "LSB;label=32;scalar=64";
    class       volVectorField;
    location    "5.7";
    object      U;
}
// * * * * * * * * * * * * * * * * * * * * * * * * * * * * * * * * * * * * * //

dimensions      [0 1 -1 0 0 0 0];

internalField   nonuniform List<vector> 
400
(
(0.00167815 -0.00167975 0)
(0.00482603 -0.00188757 0)
(0.00657048 -0.00119809 0)
(0.00565161 -0.000573375 0)
(0.00155107 0.000185544 0)
(-0.00684079 0.00173909 0)
(-0.0206001 0.00477944 0)
(-0.039504 0.00872068 0)
(-0.0607451 0.0112755 0)
(-0.0790569 0.0105029 0)
(-0.0897369 0.00677516 0)
(-0.0904081 0.00167758 0)
(-0.0802051 -0.00360208 0)
(-0.0600107 -0.0082591 0)
(-0.0335728 -0.0108343 0)
(-0.00536711 -0.00978994 0)
(0.0166457 -0.00478329 0)
(0.0244116 0.0027627 0)
(0.0161534 0.00645927 0)
(0.00431251 0.00471081 0)
(0.00171298 -0.00504887 0)
(0.00314151 -0.00401511 0)
(-0.000445303 0.000595415 0)
(-0.0113505 0.00643932 0)
(-0.0314207 0.0140348 0)
(-0.0610989 0.0237393 0)
(-0.0967427 0.0330098 0)
(-0.131314 0.0370406 0)
(-0.158804 0.0334823 0)
(-0.175932 0.0233912 0)
(-0.181292 0.00912419 0)
(-0.174945 -0.0069547 0)
(-0.157463 -0.0231237 0)
(-0.129594 -0.0368595 0)
(-0.0936007 -0.0445193 0)
(-0.0522216 -0.0418144 0)
(-0.0114537 -0.0263446 0)
(0.0168287 -0.00131664 0)
(0.0178384 0.0161852 0)
(0.0055364 0.0147985 0)
(-0.000247081 -0.00575025 0)
(-0.00539567 0.000828524 0)
(-0.019616 0.0142981 0)
(-0.0444791 0.0312009 0)
(-0.0802603 0.0493754 0)
(-0.122059 0.0642255 0)
(-0.16215 0.0704482 0)
(-0.195033 0.065949 0)
(-0.218601 0.0521434 0)
(-0.232261 0.0315253 0)
(-0.236024 0.00644791 0)
(-0.230557 -0.0210458 0)
(-0.216173 -0.0487786 0)
(-0.192368 -0.0731218 0)
(-0.158878 -0.0889314 0)
(-0.115668 -0.0891668 0)
(-0.0645449 -0.0670181 0)
(-0.0138514 -0.0227161 0)
(0.00945973 0.017856 0)
(0.00415468 0.0235448 0)
(-0.00347221 0.00048894 0)
(-0.0175056 0.017256 0)
(-0.0434776 0.0414628 0)
(-0.0795886 0.0681019 0)
(-0.122795 0.0910271 0)
(-0.165623 0.1037 0)
(-0.201643 0.102767 0)
(-0.228927 0.0895665 0)
(-0.247739 0.0672641 0)
(-0.258681 0.038569 0)
(-0.262591 0.00536201 0)
(-0.260274 -0.0310189 0)
(-0.251669 -0.0683156 0)
(-0.235731 -0.103581 0)
(-0.210468 -0.13133 0)
(-0.173179 -0.142762 0)
(-0.121303 -0.125697 0)
(-0.0568199 -0.0708674 0)
(-0.00100507 0.00349544 0)
(0.00474156 0.0281956 0)
(-0.00665516 0.0148053 0)
(-0.0286931 0.044091 0)
(-0.0632022 0.0770016 0)
(-0.104305 0.108764 0)
(-0.147054 0.131017 0)
(-0.184295 0.138002 0)
(-0.212586 0.129332 0)
(-0.232331 0.108613 0)
(-0.244818 0.0797148 0)
(-0.251776 0.0454272 0)
(-0.254891 0.00729011 0)
(-0.255086 -0.033879 0)
(-0.252136 -0.0769082 0)
(-0.245495 -0.120475 0)
(-0.23235 -0.160601 0)
(-0.208083 -0.188831 0)
(-0.166647 -0.189832 0)
(-0.103355 -0.142815 0)
(-0.0221843 -0.0389007 0)
(0.00736965 0.0270468 0)
(-0.00849606 0.0348628 0)
(-0.0351181 0.0765683 0)
(-0.0729698 0.114799 0)
(-0.11307 0.147485 0)
(-0.150268 0.16579 0)
(-0.17908 0.165733 0)
(-0.198561 0.149551 0)
(-0.210264 0.122335 0)
(-0.216176 0.0884327 0)
(-0.218777 0.0508315 0)
(-0.220033 0.0110021 0)
(-0.220943 -0.0306248 0)
(-0.221708 -0.0745138 0)
(-0.22243 -0.121035 0)
(-0.220916 -0.168962 0)
(-0.212073 -0.212806 0)
(-0.187813 -0.238372 0)
(-0.139539 -0.218387 0)
(-0.0627828 -0.11889 0)
(0.0058269 0.0141624 0)
(-0.00827453 0.0569522 0)
(-0.0352714 0.109884 0)
(-0.0716992 0.150284 0)
(-0.106873 0.180915 0)
(-0.136452 0.193589 0)
(-0.156812 0.186204 0)
(-0.168676 0.16307 0)
(-0.174163 0.13033 0)
(-0.175683 0.092749 0)
(-0.175738 0.0533435 0)
(-0.175828 0.0133549 0)
(-0.176633 -0.0271567 0)
(-0.178699 -0.0693227 0)
(-0.182567 -0.114408 0)
(-0.187589 -0.163519 0)
(-0.190133 -0.215507 0)
(-0.182308 -0.261401 0)
(-0.154112 -0.274969 0)
(-0.0992804 -0.205771 0)
(-0.00890403 -0.0146525 0)
(-0.00611889 0.0775023 0)
(-0.0297251 0.14038 0)
(-0.0612974 0.180965 0)
(-0.0897103 0.208024 0)
(-0.111672 0.214598 0)
(-0.125166 0.200283 0)
(-0.131805 0.171077 0)
(-0.133897 0.133956 0)
(-0.133897 0.0939081 0)
(-0.133744 0.0536447 0)
(-0.134121 0.0138887 0)
(-0.135211 -0.0257169 0)
(-0.137472 -0.0661771 0)
(-0.141594 -0.108699 0)
(-0.14819 -0.155253 0)
(-0.155944 -0.208196 0)
(-0.158875 -0.265586 0)
(-0.146604 -0.30788 0)
(-0.112141 -0.277012 0)
(-0.0309217 -0.0752872 0)
(-0.00271905 0.0934796 0)
(-0.0203653 0.165421 0)
(-0.0450479 0.20531 0)
(-0.0661965 0.228248 0)
(-0.0814258 0.229196 0)
(-0.0898785 0.209219 0)
(-0.0934625 0.175487 0)
(-0.0943165 0.135485 0)
(-0.0945344 0.0942074 0)
(-0.0952814 0.053879 0)
(-0.0966022 0.0145959 0)
(-0.0984045 -0.0244077 0)
(-0.100858 -0.0638915 0)
(-0.10447 -0.104535 0)
(-0.110385 -0.147957 0)
(-0.119334 -0.198101 0)
(-0.128169 -0.259417 0)
(-0.126409 -0.323164 0)
(-0.10739 -0.33451 0)
(-0.0373076 -0.163263 0)
(0.0012212 0.102595 0)
(-0.00891245 0.183222 0)
(-0.0255768 0.222828 0)
(-0.0395422 0.242396 0)
(-0.048993 0.239147 0)
(-0.0538365 0.215178 0)
(-0.0557673 0.178435 0)
(-0.0564343 0.136769 0)
(-0.0573507 0.0950857 0)
(-0.0590584 0.0550771 0)
(-0.0613299 0.0162873 0)
(-0.0640209 -0.0223205 0)
(-0.0671244 -0.061381 0)
(-0.070822 -0.10112 0)
(-0.0760489 -0.142237 0)
(-0.0843783 -0.188385 0)
(-0.0959183 -0.247908 0)
(-0.100575 -0.323993 0)
(-0.0951167 -0.371954 0)
(-0.0309023 -0.242353 0)
(0.00510841 0.103749 0)
(0.0029598 0.192795 0)
(-0.00536653 0.233297 0)
(-0.012464 0.250405 0)
(-0.0168384 0.244303 0)
(-0.0187085 0.218088 0)
(-0.0193745 0.180036 0)
(-0.0198773 0.137989 0)
(-0.0211535 0.0966057 0)
(-0.0233744 0.0571972 0)
(-0.0262527 0.0190342 0)
(-0.0297269 -0.019014 0)
(-0.0338136 -0.0576285 0)
(-0.0384565 -0.0968844 0)
(-0.0442056 -0.136724 0)
(-0.0522993 -0.179568 0)
(-0.0656619 -0.235138 0)
(-0.0741874 -0.317732 0)
(-0.081173 -0.396439 0)
(-0.0229332 -0.30688 0)
(0.00843361 0.0972839 0)
(0.0141899 0.193779 0)
(0.0140755 0.23681 0)
(0.013684 0.253175 0)
(0.0143081 0.246076 0)
(0.0155063 0.219368 0)
(0.0163687 0.181328 0)
(0.0164254 0.139643 0)
(0.0152867 0.0987774 0)
(0.013005 0.0599803 0)
(0.00983615 0.0225583 0)
(0.00573599 -0.0146214 0)
(0.000561473 -0.0523679 0)
(-0.00554493 -0.0907995 0)
(-0.0129921 -0.129563 0)
(-0.0219366 -0.169689 0)
(-0.0376873 -0.220143 0)
(-0.048747 -0.304075 0)
(-0.0679108 -0.40819 0)
(-0.0144623 -0.359759 0)
(0.0102929 0.0843392 0)
(0.0233543 0.186196 0)
(0.0310018 0.23294 0)
(0.0369179 0.249725 0)
(0.0425656 0.242864 0)
(0.0475055 0.21708 0)
(0.0509267 0.18033 0)
(0.0525842 0.139958 0)
(0.0524315 0.100268 0)
(0.050681 0.0625805 0)
(0.0475594 0.0263793 0)
(0.0429569 -0.00941098 0)
(0.0367052 -0.0457027 0)
(0.0289216 -0.0826733 0)
(0.0188124 -0.119968 0)
(0.00752253 -0.157837 0)
(-0.0118642 -0.203843 0)
(-0.024308 -0.28607 0)
(-0.0558793 -0.410712 0)
(-0.00614912 -0.401628 0)
(0.00983855 0.0671444 0)
(0.0289392 0.170425 0)
(0.0442296 0.221877 0)
(0.0567418 0.240915 0)
(0.0680057 0.235963 0)
(0.0776624 0.212601 0)
(0.0848514 0.178325 0)
(0.0892713 0.140021 0)
(0.0910001 0.10193 0)
(0.0903428 0.065603 0)
(0.0876358 0.0308983 0)
(0.0825895 -0.00321288 0)
(0.0750994 -0.0372875 0)
(0.0654465 -0.0719182 0)
(0.0522571 -0.10692 0)
(0.037384 -0.14219 0)
(0.0130044 -0.1837 0)
(-3.26077e-05 -0.26285 0)
(-0.0448562 -0.406442 0)
(0.00274611 -0.436045 0)
(0.00690062 0.0493715 0)
(0.0292629 0.148764 0)
(0.0509559 0.203332 0)
(0.0697887 0.224187 0)
(0.0872217 0.221303 0)
(0.102873 0.201145 0)
(0.115498 0.170571 0)
(0.124416 0.135721 0)
(0.129541 0.100589 0)
(0.131122 0.0668577 0)
(0.129431 0.0347731 0)
(0.124505 0.00350445 0)
(0.115896 -0.0272498 0)
(0.104206 -0.058358 0)
(0.087186 -0.0898736 0)
(0.068072 -0.122417 0)
(0.0380965 -0.160344 0)
(0.0237247 -0.236791 0)
(-0.0345132 -0.398728 0)
(0.0134455 -0.464261 0)
(0.00237575 0.0346543 0)
(0.0235528 0.123774 0)
(0.0507951 0.179706 0)
(0.0764641 0.202634 0)
(0.101071 0.202291 0)
(0.123897 0.185888 0)
(0.143293 0.15985 0)
(0.158044 0.129457 0)
(0.167737 0.0983225 0)
(0.172583 0.0681387 0)
(0.17253 0.0394978 0)
(0.168294 0.0119886 0)
(0.158481 -0.0147446 0)
(0.144791 -0.0414407 0)
(0.123566 -0.068393 0)
(0.100113 -0.0971345 0)
(0.0643624 -0.132287 0)
(0.0468605 -0.207167 0)
(-0.0227907 -0.386925 0)
(0.028491 -0.485451 0)
(-0.00341907 0.028681 0)
(0.0100101 0.101455 0)
(0.0369672 0.148525 0)
(0.0687591 0.169218 0)
(0.101583 0.170404 0)
(0.133234 0.158109 0)
(0.161164 0.13769 0)
(0.183643 0.113322 0)
(0.199634 0.088085 0)
(0.209508 0.0635096 0)
(0.212404 0.0403393 0)
(0.210135 0.0184479 0)
(0.199895 -0.00253942 0)
(0.185307 -0.0230966 0)
(0.160573 -0.0436996 0)
(0.13405 -0.0674252 0)
(0.0926396 -0.101374 0)
(0.0697339 -0.17978 0)
(-0.00444719 -0.369954 0)
(0.0521217 -0.49159 0)
(-0.0139675 0.0185826 0)
(-0.00750945 0.0881907 0)
(0.019135 0.124113 0)
(0.056283 0.13717 0)
(0.0973481 0.136723 0)
(0.137643 0.127529 0)
(0.173813 0.11288 0)
(0.20358 0.0951237 0)
(0.225412 0.076688 0)
(0.24045 0.0585853 0)
(0.246459 0.0417705 0)
(0.247364 0.0261348 0)
(0.238057 0.0118355 0)
(0.22628 -0.00190814 0)
(0.201368 -0.0159055 0)
(0.177493 -0.0348244 0)
(0.133269 -0.0676053 0)
(0.107696 -0.14589 0)
(0.037408 -0.326107 0)
(0.0923413 -0.455867 0)
(-0.105988 0.082464 0)
(-0.0777306 0.069031 0)
(-0.0485737 0.0733425 0)
(0.00370944 0.0778187 0)
(0.0571436 0.0781258 0)
(0.109791 0.0738511 0)
(0.156879 0.0665198 0)
(0.199164 0.0571284 0)
(0.231217 0.0474756 0)
(0.259321 0.0378459 0)
(0.275031 0.0292115 0)
(0.290181 0.0212554 0)
(0.290564 0.0145286 0)
(0.294719 0.00816647 0)
(0.278501 0.00121905 0)
(0.271372 -0.00992011 0)
(0.232148 -0.035488 0)
(0.218059 -0.0953849 0)
(0.150195 -0.229723 0)
(0.17067 -0.341465 0)
(0.129986 0.103756 0)
(0.158357 0.0752605 0)
(0.212225 0.0532653 0)
(0.270731 0.0416529 0)
(0.323283 0.0359328 0)
(0.375681 0.0319587 0)
(0.420226 0.028921 0)
(0.465492 0.0255829 0)
(0.498544 0.0229059 0)
(0.53376 0.0197158 0)
(0.553181 0.0175572 0)
(0.57899 0.0146231 0)
(0.585143 0.013183 0)
(0.603513 0.0103675 0)
(0.594977 0.0094078 0)
(0.603529 0.00502138 0)
(0.56777 0.000106374 0)
(0.547642 -0.0183061 0)
(0.435743 -0.0504148 0)
(0.336778 -0.101391 0)
)
;

boundaryField
{
    movingWall
    {
        type            fixedValue;
        value           uniform (1 0 0);
    }
    fixedWalls
    {
        type            noSlip;
    }
    frontAndBack
    {
        type            empty;
    }
}


// ************************************************************************* //
