/*--------------------------------*- C++ -*----------------------------------*\
| =========                 |                                                 |
| \\      /  F ield         | OpenFOAM: The Open Source CFD Toolbox           |
|  \\    /   O peration     | Version:  2212                                  |
|   \\  /    A nd           | Website:  www.openfoam.com                      |
|    \\/     M anipulation  |                                                 |
\*---------------------------------------------------------------------------*/
FoamFile
{
    version     2.0;
    format      ascii;
    arch        "LSB;label=32;scalar=64";
    class       volScalarField;
    location    "12.8";
    object      p;
}
// * * * * * * * * * * * * * * * * * * * * * * * * * * * * * * * * * * * * * //

dimensions      [0 2 -2 0 0 0 0];

internalField   nonuniform List<scalar> 
400
(
3.21904e-07
-0.000150688
-0.000534771
-0.00107198
-0.0017327
-0.00249419
-0.00318532
-0.00359789
-0.00356566
-0.00293439
-0.00154884
0.000619124
0.00324935
0.00551386
0.00653354
0.00592264
0.00400182
0.00214938
0.00111038
0.00104132
0.000116197
-5.82196e-05
-0.000377166
-0.000764342
-0.00124426
-0.00188839
-0.00270652
-0.00354385
-0.00408035
-0.00393876
-0.00284676
-0.000825162
0.00168911
0.00396068
0.00512446
0.00474284
0.00310272
0.00137448
0.000592887
0.000683931
0.000536316
0.000264845
-7.74486e-05
-0.000559809
-0.00134752
-0.00258093
-0.00421951
-0.0059842
-0.00740301
-0.00794433
-0.00726463
-0.00546241
-0.00289203
-0.000194996
0.00179142
0.00242742
0.00170848
0.000501776
-0.000396415
-0.000393123
0.00115183
0.000741144
0.000191752
-0.000774992
-0.0024514
-0.0049382
-0.00799561
-0.011121
-0.0137039
-0.0151775
-0.0152074
-0.0138404
-0.0112941
-0.00802955
-0.00475272
-0.00221022
-0.000870903
-0.000706744
-0.00128936
-0.00191868
0.00158323
0.000973627
-2.30057e-05
-0.00192432
-0.00500702
-0.00918055
-0.0139143
-0.0184804
-0.0222168
-0.0246535
-0.0255292
-0.0247234
-0.0223639
-0.018744
-0.0143051
-0.00965622
-0.00559263
-0.00294943
-0.00219379
-0.00401851
0.00129329
0.000444938
-0.0011975
-0.00430466
-0.00900545
-0.0148812
-0.0210734
-0.0267159
-0.0311919
-0.0341792
-0.035546
-0.03519
-0.0331974
-0.0297191
-0.0248998
-0.0189614
-0.0125058
-0.00694886
-0.00440141
-0.00652472
-4.83854e-05
-0.00114766
-0.00349964
-0.00779715
-0.013933
-0.021115
-0.0282369
-0.0344084
-0.0391294
-0.0422327
-0.0437205
-0.0436111
-0.0419733
-0.0388793
-0.0343113
-0.0281576
-0.0205394
-0.0127033
-0.00785528
-0.00774847
-0.00245057
-0.0037423
-0.00669881
-0.0119137
-0.0190404
-0.0269825
-0.0345048
-0.0407799
-0.0454516
-0.0484778
-0.0499405
-0.0499318
-0.048531
-0.045789
-0.0416628
-0.0359271
-0.028326
-0.0193715
-0.0118227
-0.00798099
-0.00553776
-0.00691536
-0.0102639
-0.0160223
-0.0236587
-0.0318902
-0.0394521
-0.0456138
-0.0501383
-0.0530585
-0.0544876
-0.0545277
-0.0532535
-0.0507265
-0.0469627
-0.0418125
-0.0348683
-0.0259481
-0.0167096
-0.00999496
-0.0087339
-0.0100861
-0.0135979
-0.0195426
-0.0272869
-0.0354878
-0.0429129
-0.0489106
-0.0533104
-0.0561684
-0.0575923
-0.0576636
-0.0564451
-0.0540119
-0.0504518
-0.045761
-0.0396346
-0.0315245
-0.0223217
-0.0143403
-0.0115042
-0.0127581
-0.0162195
-0.0220546
-0.0296076
-0.0375892
-0.0448271
-0.0507001
-0.0550436
-0.0578951
-0.0593374
-0.0594289
-0.0582197
-0.0557896
-0.0522875
-0.0478529
-0.0424316
-0.0353831
-0.0271984
-0.0191797
-0.0135495
-0.0146188
-0.0178561
-0.0233157
-0.0304313
-0.0380633
-0.0451183
-0.0509504
-0.0553297
-0.0582412
-0.0597289
-0.0598313
-0.0585892
-0.0560837
-0.0525161
-0.0481386
-0.0432072
-0.0370567
-0.0300322
-0.0224176
-0.0148375
-0.015568
-0.018352
-0.0232104
-0.0296936
-0.0368792
-0.043765
-0.0496406
-0.0541554
-0.0572016
-0.0587706
-0.0588777
-0.0575584
-0.0549164
-0.0511776
-0.0466562
-0.0419657
-0.0363004
-0.0302263
-0.0228962
-0.0154678
-0.0157221
-0.0177773
-0.0217464
-0.0273898
-0.0340318
-0.0407508
-0.0467409
-0.0514933
-0.0547687
-0.0564826
-0.0566236
-0.0552019
-0.0523533
-0.0483464
-0.043582
-0.0387308
-0.0331416
-0.0280997
-0.0202794
-0.0155744
-0.0152982
-0.0163381
-0.0190878
-0.0236531
-0.0296342
-0.0361717
-0.042336
-0.0474279
-0.0510398
-0.0529805
-0.0531838
-0.0516912
-0.0485916
-0.0442269
-0.0390539
-0.0337819
-0.0280716
-0.0242316
-0.014385
-0.0152768
-0.0145501
-0.0142608
-0.0154259
-0.0186848
-0.0238947
-0.0302315
-0.0366148
-0.042138
-0.0462014
-0.0484896
-0.0488666
-0.0473533
-0.044021
-0.039249
-0.033519
-0.0276412
-0.0216293
-0.0180535
-0.00383288
-0.014662
-0.0136182
-0.0117068
-0.011081
-0.0129536
-0.0173803
-0.0235341
-0.0301705
-0.0361934
-0.0408117
-0.0435788
-0.0442618
-0.0428508
-0.0393765
-0.0341853
-0.0276897
-0.0206822
-0.0132761
-0.00678571
0.016053
-0.0145832
-0.0126571
-0.00864844
-0.00623459
-0.00691005
-0.0107458
-0.0168179
-0.02374
-0.0302987
-0.0355394
-0.0389037
-0.0400352
-0.0388777
-0.0354481
-0.0298959
-0.0222758
-0.0128725
-0.000688075
0.0166951
0.057064
-0.0117946
-0.0118307
-0.00572607
-0.00177499
-0.00176497
-0.00540471
-0.0115752
-0.018815
-0.0258756
-0.0316876
-0.0356624
-0.037362
-0.0366854
-0.0333554
-0.0272242
-0.0175415
-0.00314817
0.0204904
0.0607045
0.129821
-0.0295168
-0.0106297
-0.000608835
0.00308085
0.00244828
-0.00155699
-0.00799945
-0.0155534
-0.0229762
-0.0291738
-0.033532
-0.0355881
-0.0352012
-0.0319558
-0.0252276
-0.01286
0.00942268
0.0511716
0.122878
0.226076
)
;

boundaryField
{
    movingWall
    {
        type            zeroGradient;
    }
    fixedWalls
    {
        type            zeroGradient;
    }
    frontAndBack
    {
        type            empty;
    }
}


// ************************************************************************* //
