/*--------------------------------*- C++ -*----------------------------------*\
| =========                 |                                                 |
| \\      /  F ield         | OpenFOAM: The Open Source CFD Toolbox           |
|  \\    /   O peration     | Version:  2212                                  |
|   \\  /    A nd           | Website:  www.openfoam.com                      |
|    \\/     M anipulation  |                                                 |
\*---------------------------------------------------------------------------*/
FoamFile
{
    version     2.0;
    format      ascii;
    arch        "LSB;label=32;scalar=64";
    class       volScalarField;
    location    "9.3";
    object      p;
}
// * * * * * * * * * * * * * * * * * * * * * * * * * * * * * * * * * * * * * //

dimensions      [0 2 -2 0 0 0 0];

internalField   nonuniform List<scalar> 
400
(
5.76891e-07
-0.000150406
-0.000534468
-0.00107165
-0.00173234
-0.00249377
-0.00318487
-0.00359741
-0.00356518
-0.00293392
-0.0015484
0.000619484
0.00324966
0.00551421
0.00653405
0.0059234
0.00400279
0.00215046
0.00111145
0.00104236
0.00011648
-5.79289e-05
-0.000376858
-0.000764017
-0.00124392
-0.00188801
-0.00270608
-0.00354334
-0.00407979
-0.0039382
-0.00284623
-0.000824713
0.0016895
0.00396111
0.00512505
0.00474366
0.00310378
0.00137559
0.000594002
0.000684998
0.000536575
0.000265125
-7.71477e-05
-0.000559485
-0.00134715
-0.00258047
-0.00421891
-0.00598344
-0.00740213
-0.0079434
-0.00726374
-0.00546159
-0.0028913
-0.000194301
0.00179218
0.00242834
0.00170957
0.000502946
-0.000395241
-0.000391998
0.00115204
0.000741377
0.000192026
-0.000774647
-0.00245092
-0.00493751
-0.00799462
-0.0111197
-0.0137024
-0.0151758
-0.0152057
-0.0138388
-0.0112927
-0.00802827
-0.00475154
-0.00220906
-0.000869731
-0.00070556
-0.00128815
-0.0019175
0.00158334
0.000973787
-2.27547e-05
-0.00192388
-0.00500628
-0.0091794
-0.0139126
-0.0184782
-0.0222143
-0.0246507
-0.0255263
-0.0247206
-0.0223614
-0.0187418
-0.0143032
-0.0096546
-0.00559123
-0.00294819
-0.00219261
-0.00401726
0.00129333
0.000445059
-0.0011972
-0.00430403
-0.0090043
-0.0148794
-0.0210709
-0.0267128
-0.0311882
-0.0341751
-0.0355418
-0.0351859
-0.0331936
-0.0297158
-0.024897
-0.0189591
-0.0125039
-0.00694742
-0.00440016
-0.00652336
-4.83316e-05
-0.00114748
-0.00349919
-0.0077962
-0.0139313
-0.0211124
-0.0282334
-0.0344041
-0.0391243
-0.0422272
-0.0437147
-0.0436054
-0.041968
-0.0388746
-0.0343073
-0.0281544
-0.020537
-0.0127015
-0.00785387
-0.00774721
-0.00245039
-0.00374197
-0.0066981
-0.0119124
-0.0190381
-0.0269791
-0.0345004
-0.0407744
-0.0454452
-0.0484708
-0.0499332
-0.0499245
-0.0485242
-0.0457829
-0.0416577
-0.0359229
-0.0283228
-0.0193691
-0.0118211
-0.00797979
-0.00553735
-0.00691479
-0.0102629
-0.0160205
-0.0236558
-0.031886
-0.0394467
-0.0456072
-0.0501307
-0.05305
-0.0544788
-0.0545189
-0.0532451
-0.050719
-0.0469563
-0.0418074
-0.0348642
-0.0259451
-0.0167075
-0.0099935
-0.00873323
-0.0100852
-0.0135966
-0.0195403
-0.0272835
-0.035483
-0.0429067
-0.0489032
-0.0533018
-0.0561589
-0.0575823
-0.0576536
-0.0564356
-0.0540034
-0.0504445
-0.045755
-0.0396299
-0.0315208
-0.022319
-0.0143383
-0.0115034
-0.012757
-0.0162179
-0.0220521
-0.0296038
-0.037584
-0.0448205
-0.050692
-0.0550343
-0.0578848
-0.0593267
-0.0594182
-0.0582094
-0.0557804
-0.0522796
-0.0478464
-0.0424265
-0.0353791
-0.0271953
-0.0191772
-0.0135484
-0.0146176
-0.0178543
-0.0233131
-0.0304274
-0.038058
-0.0451116
-0.0509422
-0.0553203
-0.0582308
-0.059718
-0.0598203
-0.0585788
-0.0560744
-0.0525081
-0.0481321
-0.0432022
-0.0370528
-0.0300291
-0.0224149
-0.0148364
-0.0155668
-0.0183503
-0.0232079
-0.0296899
-0.0368741
-0.0437586
-0.0496328
-0.0541463
-0.0571915
-0.05876
-0.0588671
-0.0575484
-0.0549074
-0.05117
-0.0466502
-0.0419611
-0.0362969
-0.0302236
-0.0228937
-0.0154668
-0.015721
-0.0177758
-0.0217441
-0.0273865
-0.0340273
-0.0407449
-0.0467337
-0.0514849
-0.0547594
-0.0564728
-0.0566138
-0.0551928
-0.0523452
-0.0483397
-0.0435769
-0.0387271
-0.033139
-0.0280976
-0.0202776
-0.0155734
-0.0152972
-0.0163368
-0.019086
-0.0236505
-0.0296305
-0.0361668
-0.0423298
-0.0474206
-0.0510316
-0.0529718
-0.0531752
-0.0516832
-0.0485847
-0.0442214
-0.03905
-0.0337794
-0.0280702
-0.0242304
-0.0143843
-0.0152759
-0.0145493
-0.0142599
-0.0154247
-0.018683
-0.023892
-0.0302277
-0.0366099
-0.042132
-0.0461945
-0.0484823
-0.0488594
-0.0473467
-0.0440155
-0.0392449
-0.0335164
-0.0276402
-0.0216292
-0.0180539
-0.00383341
-0.0146613
-0.0136175
-0.0117063
-0.0110805
-0.0129527
-0.0173787
-0.0235315
-0.0301668
-0.0361887
-0.0408061
-0.0435729
-0.0442559
-0.0428454
-0.0393722
-0.0341825
-0.0276885
-0.0206825
-0.0132775
-0.00678769
0.0160513
-0.0145827
-0.0126567
-0.00864824
-0.00623461
-0.00690995
-0.0107452
-0.0168164
-0.0237375
-0.0302952
-0.035535
-0.0388989
-0.0400304
-0.0388734
-0.0354448
-0.029894
-0.0222756
-0.012874
-0.000690753
0.0166919
0.0570614
-0.0117942
-0.0118304
-0.00572625
-0.00177552
-0.00176549
-0.00540481
-0.0115745
-0.0188133
-0.0258729
-0.0316841
-0.0356584
-0.0373579
-0.0366817
-0.0333527
-0.0272229
-0.0175419
-0.00315021
0.0204871
0.0607008
0.129819
-0.0295164
-0.0106296
-0.00060923
0.00308008
0.00244749
-0.00155739
-0.00799909
-0.0155521
-0.0229739
-0.0291707
-0.0335282
-0.0355842
-0.0351978
-0.0319532
-0.0252263
-0.0128602
0.00942085
0.0511686
0.122875
0.226074
)
;

boundaryField
{
    movingWall
    {
        type            zeroGradient;
    }
    fixedWalls
    {
        type            zeroGradient;
    }
    frontAndBack
    {
        type            empty;
    }
}


// ************************************************************************* //
