/*--------------------------------*- C++ -*----------------------------------*\
| =========                 |                                                 |
| \\      /  F ield         | OpenFOAM: The Open Source CFD Toolbox           |
|  \\    /   O peration     | Version:  2212                                  |
|   \\  /    A nd           | Website:  www.openfoam.com                      |
|    \\/     M anipulation  |                                                 |
\*---------------------------------------------------------------------------*/
FoamFile
{
    version     2.0;
    format      ascii;
    arch        "LSB;label=32;scalar=64";
    class       volVectorField;
    location    "9.3";
    object      U;
}
// * * * * * * * * * * * * * * * * * * * * * * * * * * * * * * * * * * * * * //

dimensions      [0 1 -1 0 0 0 0];

internalField   nonuniform List<vector> 
400
(
(0.00168164 -0.00168374 0)
(0.0048383 -0.00189217 0)
(0.00659061 -0.00120068 0)
(0.00567423 -0.000575092 0)
(0.00157167 0.000184018 0)
(-0.0068295 0.00173938 0)
(-0.0206082 0.00478623 0)
(-0.0395407 0.00873579 0)
(-0.0608103 0.0112924 0)
(-0.0791367 0.0105123 0)
(-0.0898121 0.00677453 0)
(-0.090463 0.00166913 0)
(-0.0802263 -0.00361625 0)
(-0.0599947 -0.00827471 0)
(-0.0335222 -0.010847 0)
(-0.00529428 -0.00979522 0)
(0.0167223 -0.00477328 0)
(0.0244696 0.00277661 0)
(0.0161783 0.00647204 0)
(0.00431647 0.00471704 0)
(0.0017203 -0.00506493 0)
(0.00316215 -0.00403213 0)
(-0.000417758 0.000587916 0)
(-0.0113304 0.00644167 0)
(-0.0314262 0.0140499 0)
(-0.0611495 0.0237735 0)
(-0.0968457 0.0330611 0)
(-0.131458 0.0370921 0)
(-0.158971 0.0335171 0)
(-0.176103 0.0234013 0)
(-0.18145 0.00910956 0)
(-0.175079 -0.00698958 0)
(-0.157561 -0.0231737 0)
(-0.129652 -0.0369137 0)
(-0.0936153 -0.0445655 0)
(-0.0521953 -0.0418389 0)
(-0.0114011 -0.0263347 0)
(0.0168886 -0.00127974 0)
(0.0178716 0.0162233 0)
(0.00554213 0.0148197 0)
(-0.000239767 -0.00577988 0)
(-0.00538156 0.000802258 0)
(-0.0196099 0.0142995 0)
(-0.0445044 0.0312359 0)
(-0.0803413 0.0494453 0)
(-0.122205 0.0643203 0)
(-0.16235 0.0705462 0)
(-0.195273 0.0660285 0)
(-0.218866 0.052191 0)
(-0.232534 0.031534 0)
(-0.23629 0.00641677 0)
(-0.230804 -0.0211129 0)
(-0.21639 -0.0488726 0)
(-0.192545 -0.0732268 0)
(-0.159007 -0.0890269 0)
(-0.115743 -0.0892302 0)
(-0.0645637 -0.0670298 0)
(-0.0138219 -0.0226657 0)
(0.00948112 0.0179176 0)
(0.00415544 0.0235797 0)
(-0.00347204 0.000453941 0)
(-0.0175151 0.0172411 0)
(-0.0435169 0.0415013 0)
(-0.0796835 0.0681954 0)
(-0.122961 0.0911616 0)
(-0.165855 0.103849 0)
(-0.201927 0.102904 0)
(-0.229251 0.089672 0)
(-0.24809 0.0673264 0)
(-0.259045 0.03858 0)
(-0.262953 0.00531786 0)
(-0.26062 -0.0311166 0)
(-0.251987 -0.0684549 0)
(-0.236009 -0.103744 0)
(-0.210696 -0.131492 0)
(-0.173349 -0.142892 0)
(-0.121404 -0.125767 0)
(-0.0568453 -0.0708543 0)
(-0.00098731 0.00356524 0)
(0.00474228 0.0282402 0)
(-0.00666289 0.0147837 0)
(-0.0287306 0.0441124 0)
(-0.0632919 0.077097 0)
(-0.104465 0.108924 0)
(-0.147286 0.131213 0)
(-0.184587 0.138201 0)
(-0.212927 0.129508 0)
(-0.232711 0.108749 0)
(-0.245229 0.079799 0)
(-0.252205 0.0454483 0)
(-0.255324 0.00724093 0)
(-0.255506 -0.0339973 0)
(-0.252527 -0.0770833 0)
(-0.245845 -0.120688 0)
(-0.232649 -0.160825 0)
(-0.208326 -0.189036 0)
(-0.166824 -0.189985 0)
(-0.103451 -0.142883 0)
(-0.0221829 -0.0388548 0)
(0.00738186 0.0271008 0)
(-0.00851119 0.034875 0)
(-0.0351789 0.0766426 0)
(-0.0730965 0.114959 0)
(-0.11327 0.14771 0)
(-0.150536 0.166044 0)
(-0.1794 0.16598 0)
(-0.198927 0.149769 0)
(-0.210673 0.12251 0)
(-0.216623 0.0885479 0)
(-0.219254 0.0508716 0)
(-0.220524 0.010956 0)
(-0.221424 -0.0307571 0)
(-0.222157 -0.0747205 0)
(-0.22283 -0.121292 0)
(-0.221258 -0.169239 0)
(-0.212355 -0.213072 0)
(-0.188036 -0.2386 0)
(-0.139694 -0.218551 0)
(-0.0628517 -0.118947 0)
(0.00584895 0.014203 0)
(-0.00829346 0.0570087 0)
(-0.0353446 0.110018 0)
(-0.0718426 0.150506 0)
(-0.107086 0.1812 0)
(-0.136724 0.193895 0)
(-0.157131 0.186499 0)
(-0.169043 0.163335 0)
(-0.174582 0.13055 0)
(-0.176156 0.0929042 0)
(-0.176254 0.0534109 0)
(-0.176368 0.0133151 0)
(-0.177169 -0.0273095 0)
(-0.179201 -0.0695766 0)
(-0.18301 -0.114729 0)
(-0.187958 -0.163863 0)
(-0.190429 -0.215833 0)
(-0.182541 -0.261685 0)
(-0.154291 -0.275203 0)
(-0.0994085 -0.205925 0)
(-0.00890844 -0.0146258 0)
(-0.00613636 0.0776065 0)
(-0.0297962 0.140572 0)
(-0.0614348 0.181246 0)
(-0.0899086 0.208364 0)
(-0.111921 0.214954 0)
(-0.125459 0.200627 0)
(-0.13215 0.171394 0)
(-0.134303 0.13423 0)
(-0.134365 0.0941151 0)
(-0.134265 0.0537513 0)
(-0.134672 0.0138639 0)
(-0.135765 -0.0258878 0)
(-0.137997 -0.0664828 0)
(-0.142061 -0.1091 0)
(-0.148575 -0.155689 0)
(-0.15624 -0.208605 0)
(-0.159096 -0.265931 0)
(-0.146766 -0.308167 0)
(-0.112267 -0.277238 0)
(-0.0309686 -0.075344 0)
(-0.00273059 0.0936279 0)
(-0.0204224 0.165667 0)
(-0.0451611 0.205641 0)
(-0.0663596 0.228635 0)
(-0.0816306 0.229597 0)
(-0.0901229 0.20961 0)
(-0.0937562 0.175857 0)
(-0.0946688 0.135819 0)
(-0.0949465 0.0944732 0)
(-0.095742 0.0540317 0)
(-0.0970919 0.0145941 0)
(-0.0989017 -0.0245839 0)
(-0.101338 -0.0642331 0)
(-0.104905 -0.105004 0)
(-0.110752 -0.148485 0)
(-0.119613 -0.198607 0)
(-0.128367 -0.259836 0)
(-0.126539 -0.3235 0)
(-0.107491 -0.334804 0)
(-0.0373537 -0.163458 0)
(0.00121938 0.102776 0)
(-0.00894547 0.183511 0)
(-0.0256507 0.223198 0)
(-0.0396521 0.242821 0)
(-0.0491333 0.239587 0)
(-0.0540073 0.215613 0)
(-0.0559775 0.178856 0)
(-0.0566906 0.137159 0)
(-0.0576516 0.0954038 0)
(-0.0593937 0.0552707 0)
(-0.0616865 0.0163099 0)
(-0.0643868 -0.0224905 0)
(-0.0674857 -0.0617373 0)
(-0.0711612 -0.10163 0)
(-0.0763455 -0.142836 0)
(-0.0846086 -0.18898 0)
(-0.0960768 -0.248403 0)
(-0.10066 -0.324367 0)
(-0.0951806 -0.372271 0)
(-0.0309257 -0.242612 0)
(0.0051189 0.103942 0)
(0.00295751 0.193113 0)
(-0.00539107 0.233694 0)
(-0.012509 0.250855 0)
(-0.0169006 0.244771 0)
(-0.018788 0.218553 0)
(-0.0194765 0.180491 0)
(-0.0200048 0.138415 0)
(-0.0213031 0.0969582 0)
(-0.023539 0.0574208 0)
(-0.0264278 0.0190814 0)
(-0.0299112 -0.0191657 0)
(-0.0340055 -0.0579758 0)
(-0.0386493 -0.0974 0)
(-0.044388 -0.137356 0)
(-0.0524485 -0.180227 0)
(-0.0657659 -0.235702 0)
(-0.0742255 -0.318145 0)
(-0.0812025 -0.396777 0)
(-0.0229432 -0.307173 0)
(0.00845843 0.097468 0)
(0.0142222 0.194106 0)
(0.0141052 0.237218 0)
(0.0137108 0.253636 0)
(0.0143338 0.246557 0)
(0.015531 0.219849 0)
(0.0163908 0.1818 0)
(0.0164447 0.140085 0)
(0.0153069 0.0991456 0)
(0.0130298 0.0602205 0)
(0.00986198 0.0226252 0)
(0.00575381 -0.0147502 0)
(0.000562248 -0.052691 0)
(-0.00556322 -0.0912936 0)
(-0.0130309 -0.130187 0)
(-0.021978 -0.170368 0)
(-0.0377189 -0.220747 0)
(-0.0487303 -0.304506 0)
(-0.0679048 -0.408521 0)
(-0.0144593 -0.360055 0)
(0.01033 0.0844883 0)
(0.023421 0.18651 0)
(0.0310855 0.233341 0)
(0.0370159 0.250182 0)
(0.0426783 0.243342 0)
(0.0476337 0.217557 0)
(0.0510715 0.180794 0)
(0.0527476 0.140388 0)
(0.0526163 0.100627 0)
(0.0508872 0.0628182 0)
(0.0477775 0.0264555 0)
(0.0431695 -0.00951869 0)
(0.0368959 -0.045996 0)
(0.0290805 -0.0831316 0)
(0.0189254 -0.120558 0)
(0.0075995 -0.1585 0)
(-0.0118156 -0.204459 0)
(-0.0242383 -0.286508 0)
(-0.0558437 -0.411027 0)
(-0.00613745 -0.401903 0)
(0.00987869 0.0672363 0)
(0.0290325 0.1707 0)
(0.04436 0.222249 0)
(0.056904 0.241347 0)
(0.0681992 0.23642 0)
(0.0778878 0.213058 0)
(0.0851104 0.178765 0)
(0.0895664 0.140424 0)
(0.0913321 0.102263 0)
(0.0907074 0.0658267 0)
(0.0880222 0.030978 0)
(0.0829729 -0.00330059 0)
(0.0754582 -0.0375432 0)
(0.0657658 -0.0723252 0)
(0.0525135 -0.107451 0)
(0.0375793 -0.1428 0)
(0.0131361 -0.184287 0)
(8.30268e-05 -0.263269 0)
(-0.0447962 -0.406727 0)
(0.00276601 -0.436279 0)
(0.00693021 0.0493975 0)
(0.0293675 0.148975 0)
(0.0511186 0.203658 0)
(0.0699997 0.224579 0)
(0.0874783 0.221722 0)
(0.103175 0.201563 0)
(0.115848 0.170968 0)
(0.124815 0.136077 0)
(0.129988 0.100879 0)
(0.131609 0.0670504 0)
(0.129946 0.0348422 0)
(0.125022 0.00343017 0)
(0.11639 -0.0274666 0)
(0.104657 -0.0587059 0)
(0.087562 -0.0903302 0)
(0.0683704 -0.122949 0)
(0.0383037 -0.16087 0)
(0.0238638 -0.237169 0)
(-0.034438 -0.398973 0)
(0.0134756 -0.464437 0)
(0.00238723 0.0346266 0)
(0.0236433 0.123905 0)
(0.0509641 0.179962 0)
(0.0766999 0.202963 0)
(0.101369 0.202653 0)
(0.124256 0.186252 0)
(0.143713 0.160195 0)
(0.158524 0.129763 0)
(0.168272 0.0985692 0)
(0.173163 0.0683024 0)
(0.173139 0.0395596 0)
(0.168911 0.0119351 0)
(0.159073 -0.0149132 0)
(0.145339 -0.0417192 0)
(0.124033 -0.0687629 0)
(0.10049 -0.0975656 0)
(0.0646313 -0.132721 0)
(0.0470114 -0.207465 0)
(-0.0227024 -0.387089 0)
(0.0285339 -0.485562 0)
(-0.00342621 0.0286133 0)
(0.0100735 0.101503 0)
(0.0371164 0.148704 0)
(0.0689857 0.169473 0)
(0.101884 0.170694 0)
(0.133609 0.158404 0)
(0.161611 0.137968 0)
(0.18416 0.113563 0)
(0.200212 0.0882744 0)
(0.210138 0.0636313 0)
(0.213064 0.0403792 0)
(0.21081 0.0184006 0)
(0.200545 -0.00267929 0)
(0.185911 -0.0233174 0)
(0.161093 -0.0439844 0)
(0.134471 -0.067747 0)
(0.092935 -0.101699 0)
(0.0698797 -0.180018 0)
(-0.00436563 -0.370055 0)
(0.0521622 -0.491643 0)
(-0.0140118 0.0185171 0)
(-0.00751599 0.0881761 0)
(0.0192215 0.124197 0)
(0.0564587 0.137325 0)
(0.0976172 0.136918 0)
(0.138005 0.127735 0)
(0.174262 0.113078 0)
(0.204112 0.0952985 0)
(0.22601 0.0768246 0)
(0.241106 0.0586745 0)
(0.247142 0.0418007 0)
(0.248058 0.0261055 0)
(0.238718 0.0117409 0)
(0.226899 -0.00205102 0)
(0.201897 -0.0160918 0)
(0.177909 -0.0350283 0)
(0.133558 -0.0678067 0)
(0.107842 -0.146004 0)
(0.0374733 -0.326119 0)
(0.0923679 -0.455871 0)
(-0.10602 0.0824179 0)
(-0.07776 0.0689908 0)
(-0.0485679 0.0733705 0)
(0.0037822 0.077891 0)
(0.0572999 0.0782253 0)
(0.110035 0.0739613 0)
(0.157206 0.0666259 0)
(0.199572 0.0572209 0)
(0.231685 0.0475445 0)
(0.259839 0.0378875 0)
(0.275567 0.0292197 0)
(0.290722 0.0212331 0)
(0.291074 0.0144751 0)
(0.295184 0.00809154 0)
(0.278879 0.00112324 0)
(0.271663 -0.0100143 0)
(0.23235 -0.0355691 0)
(0.218144 -0.0954196 0)
(0.150208 -0.229723 0)
(0.170672 -0.341455 0)
(0.129969 0.103745 0)
(0.15832 0.0752279 0)
(0.212165 0.0532277 0)
(0.270673 0.0416229 0)
(0.323249 0.0359132 0)
(0.375692 0.0319488 0)
(0.420288 0.0289166 0)
(0.465608 0.025581 0)
(0.498704 0.022903 0)
(0.533955 0.0197106 0)
(0.553394 0.0175477 0)
(0.579204 0.0146097 0)
(0.585341 0.0131649 0)
(0.60368 0.0103459 0)
(0.5951 0.00938352 0)
(0.6036 0.0049998 0)
(0.567791 8.922e-05 0)
(0.547613 -0.0183159 0)
(0.435691 -0.0504144 0)
(0.336754 -0.101386 0)
)
;

boundaryField
{
    movingWall
    {
        type            fixedValue;
        value           uniform (1 0 0);
    }
    fixedWalls
    {
        type            noSlip;
    }
    frontAndBack
    {
        type            empty;
    }
}


// ************************************************************************* //
