/*--------------------------------*- C++ -*----------------------------------*\
| =========                 |                                                 |
| \\      /  F ield         | OpenFOAM: The Open Source CFD Toolbox           |
|  \\    /   O peration     | Version:  2212                                  |
|   \\  /    A nd           | Website:  www.openfoam.com                      |
|    \\/     M anipulation  |                                                 |
\*---------------------------------------------------------------------------*/
FoamFile
{
    version     2.0;
    format      ascii;
    arch        "LSB;label=32;scalar=64";
    class       volScalarField;
    location    "6.6";
    object      p;
}
// * * * * * * * * * * * * * * * * * * * * * * * * * * * * * * * * * * * * * //

dimensions      [0 2 -2 0 0 0 0];

internalField   nonuniform List<scalar> 
400
(
-1.85704e-07
-0.000151074
-0.000534812
-0.00107161
-0.00173188
-0.00249277
-0.00318341
-0.0035957
-0.0035634
-0.00293233
-0.00154737
0.000619635
0.00324923
0.00551423
0.0065359
0.00592814
0.00401004
0.002159
0.00112014
0.0010508
0.000115777
-5.8503e-05
-0.000377141
-0.000764053
-0.0012437
-0.00188737
-0.00270477
-0.00354129
-0.0040772
-0.00393559
-0.00284419
-0.000823563
0.00169003
0.00396202
0.00512771
0.004749
0.00311183
0.00138448
0.000602937
0.000693519
0.000535605
0.000264433
-7.75494e-05
-0.000559582
-0.00134669
-0.00257895
-0.00421584
-0.00597861
-0.00739586
-0.00793662
-0.00725749
-0.00545633
-0.00288704
-0.000190363
0.00179695
0.0024349
0.00171813
0.000512377
-0.00038573
-0.000383003
0.00115041
0.000740062
0.000191243
-0.00077457
-0.00244923
-0.00493328
-0.00798715
-0.0111089
-0.0136887
-0.0151607
-0.0151906
-0.0138248
-0.0112804
-0.00801774
-0.00474209
-0.0021999
-0.000860385
-0.000696024
-0.00127841
-0.00190802
0.00158049
0.00097155
-2.38428e-05
-0.00192284
-0.00500175
-0.00917008
-0.0138978
-0.018458
-0.0221895
-0.0246231
-0.0254978
-0.0246934
-0.022337
-0.0187209
-0.0142859
-0.00964033
-0.00557941
-0.00293806
-0.00218329
-0.00400707
0.00128965
0.000442331
-0.00119782
-0.00430071
-0.00899508
-0.0148628
-0.0210463
-0.0266807
-0.0311498
-0.0341325
-0.0354975
-0.035143
-0.0331544
-0.0296818
-0.0248689
-0.0189369
-0.0124872
-0.00693508
-0.00438999
-0.00651193
-5.18357e-05
-0.00114965
-0.00349809
-0.00778918
-0.0139159
-0.0210872
-0.0281979
-0.034359
-0.0390711
-0.0421683
-0.0436534
-0.0435454
-0.0419123
-0.0388257
-0.0342666
-0.0281222
-0.020513
-0.0126847
-0.00784184
-0.00773693
-0.00245238
-0.00374228
-0.00669402
-0.0119005
-0.0190157
-0.0269447
-0.0344537
-0.0407161
-0.0453769
-0.0483952
-0.0498541
-0.0498463
-0.0484511
-0.0457181
-0.0416033
-0.0358796
-0.02829
-0.0193461
-0.0118062
-0.00797015
-0.00553671
-0.00691222
-0.010255
-0.0160035
-0.0236265
-0.031843
-0.0393896
-0.0455366
-0.0500482
-0.0529587
-0.054383
-0.0544236
-0.0531554
-0.050639
-0.0468887
-0.0417531
-0.0348225
-0.0259148
-0.0166876
-0.0099809
-0.00872958
-0.0100795
-0.013585
-0.0195186
-0.0272484
-0.0354328
-0.0428411
-0.0488225
-0.0532079
-0.0560549
-0.0574731
-0.0575445
-0.0563325
-0.0539109
-0.050366
-0.0456917
-0.0395807
-0.0314841
-0.022293
-0.0143196
-0.0114972
-0.0127487
-0.0162034
-0.0220271
-0.0295648
-0.0375293
-0.0447494
-0.0506051
-0.0549333
-0.057773
-0.0592091
-0.0593007
-0.058098
-0.0556803
-0.0521944
-0.0477776
-0.042373
-0.0353386
-0.0271651
-0.0191533
-0.0135408
-0.0146078
-0.0178384
-0.0232868
-0.0303872
-0.0380019
-0.045039
-0.0508535
-0.0552173
-0.0581168
-0.0595981
-0.0597005
-0.0584653
-0.0559726
-0.0524219
-0.0480629
-0.043149
-0.0370126
-0.0299983
-0.022389
-0.0148284
-0.0155569
-0.0183347
-0.0231827
-0.0296516
-0.0368205
-0.0436889
-0.0495474
-0.0540468
-0.0570812
-0.058644
-0.0587513
-0.057439
-0.05481
-0.0510884
-0.0465861
-0.0419133
-0.0362619
-0.0301964
-0.0228705
-0.015459
-0.0157121
-0.0177623
-0.0217224
-0.0273532
-0.0339799
-0.0406824
-0.0466561
-0.0513938
-0.054658
-0.0563659
-0.0565073
-0.0550928
-0.0522573
-0.0482679
-0.0435227
-0.0386896
-0.0331137
-0.0280778
-0.0202619
-0.0155663
-0.0152899
-0.0163266
-0.0190697
-0.0236247
-0.0295925
-0.036115
-0.0422639
-0.0473418
-0.050943
-0.052878
-0.0530819
-0.0515966
-0.0485103
-0.0441632
-0.0390097
-0.0337558
-0.0280585
-0.0242218
-0.0143803
-0.0152698
-0.0145438
-0.0142535
-0.015415
-0.0186666
-0.0238655
-0.0301888
-0.0365579
-0.0420678
-0.046121
-0.0484037
-0.0487814
-0.0472753
-0.0439565
-0.0392022
-0.0334919
-0.027632
-0.0216325
-0.0180624
-0.00384351
-0.0146566
-0.0136139
-0.011704
-0.0110779
-0.0129462
-0.0173644
-0.0235064
-0.0301294
-0.0361395
-0.0407478
-0.0435094
-0.0441928
-0.0427885
-0.0393276
-0.0341544
-0.0276787
-0.0206897
-0.0132972
-0.00681434
0.0160278
-0.0145803
-0.0126552
-0.0086498
-0.00623878
-0.00691276
-0.0107421
-0.0168037
-0.0237133
-0.0302595
-0.0354902
-0.0388488
-0.0399804
-0.0388293
-0.0354119
-0.029877
-0.0222773
-0.0128941
-0.000725118
0.0166512
0.0570275
-0.0117941
-0.0118314
-0.00573213
-0.00178553
-0.00177538
-0.00540996
-0.0115708
-0.0187984
-0.0258467
-0.0316484
-0.035617
-0.0373157
-0.0366442
-0.0333257
-0.0272119
-0.0175498
-0.00317722
0.0204454
0.0606551
0.129782
-0.0295152
-0.0106321
-0.000617629
0.00306741
0.0024346
-0.00156583
-0.00799901
-0.015541
-0.0229514
-0.0291386
-0.03349
-0.0355446
-0.0351624
-0.0319276
-0.0252151
-0.0128665
0.009396
0.0511304
0.122834
0.226041
)
;

boundaryField
{
    movingWall
    {
        type            zeroGradient;
    }
    fixedWalls
    {
        type            zeroGradient;
    }
    frontAndBack
    {
        type            empty;
    }
}


// ************************************************************************* //
