/*--------------------------------*- C++ -*----------------------------------*\
| =========                 |                                                 |
| \\      /  F ield         | OpenFOAM: The Open Source CFD Toolbox           |
|  \\    /   O peration     | Version:  2212                                  |
|   \\  /    A nd           | Website:  www.openfoam.com                      |
|    \\/     M anipulation  |                                                 |
\*---------------------------------------------------------------------------*/
FoamFile
{
    version     2.0;
    format      ascii;
    arch        "LSB;label=32;scalar=64";
    class       surfaceScalarField;
    location    "6.6";
    object      phi;
}
// * * * * * * * * * * * * * * * * * * * * * * * * * * * * * * * * * * * * * //

dimensions      [0 3 -1 0 0 0 0];

oriented        oriented;

internalField   nonuniform List<scalar> 
760
(
1.55939e-07
-1.55922e-07
2.93267e-07
-1.37329e-07
3.09531e-07
-1.62645e-08
1.83224e-07
1.26308e-07
-1.20652e-07
3.03876e-07
-6.65974e-07
5.45322e-07
-1.48479e-06
8.18821e-07
-2.48978e-06
1.00498e-06
-3.47881e-06
9.89029e-07
-4.21868e-06
7.39871e-07
-4.54251e-06
3.23835e-07
-4.35279e-06
-1.89724e-07
-3.59372e-06
-7.59073e-07
-2.3798e-06
-1.21391e-06
-9.41519e-07
-1.43828e-06
3.45935e-07
-1.28745e-06
1.08844e-06
-7.42502e-07
1.03225e-06
5.6187e-08
4.60719e-07
5.71532e-07
4.6072e-07
1.24755e-07
-2.80679e-07
7.40645e-08
-8.66379e-08
-2.97538e-07
3.55338e-07
-1.07905e-06
9.07823e-07
-2.31535e-06
1.54017e-06
-3.9258e-06
2.15578e-06
-5.65971e-06
2.55273e-06
-7.20373e-06
2.54901e-06
-8.33331e-06
2.1186e-06
-8.93869e-06
1.34525e-06
-8.97297e-06
3.58115e-07
-8.41361e-06
-7.49081e-07
-7.29194e-06
-1.88075e-06
-5.64136e-06
-2.86449e-06
-3.60612e-06
-3.47352e-06
-1.49124e-06
-3.40234e-06
1.7736e-07
-2.41111e-06
8.57998e-07
-6.24453e-07
5.25333e-07
9.04195e-07
9.86053e-07
-1.27838e-07
-1.52842e-07
-6.34159e-07
4.19684e-07
-1.62472e-06
1.3459e-06
-3.14034e-06
2.42344e-06
-5.05514e-06
3.45497e-06
-7.06974e-06
4.17038e-06
-8.86883e-06
4.35181e-06
-1.02724e-05
3.95255e-06
-1.12287e-05
3.07494e-06
-1.17301e-05
1.84666e-06
-1.17245e-05
3.52467e-07
-1.1266e-05
-1.20749e-06
-1.03342e-05
-2.81265e-06
-8.87457e-06
-4.32407e-06
-6.86753e-06
-5.48056e-06
-4.40239e-06
-5.86748e-06
-1.87887e-06
-4.93463e-06
-8.69143e-08
-2.41641e-06
2.94493e-07
5.22787e-07
1.28055e-06
-5.00446e-07
3.47604e-07
-1.55948e-06
1.47872e-06
-3.11805e-06
2.90447e-06
-5.07862e-06
4.38401e-06
-7.18109e-06
5.55744e-06
-9.11784e-06
6.10712e-06
-1.06867e-05
5.92067e-06
-1.18451e-05
5.11099e-06
-1.26212e-05
3.85103e-06
-1.30496e-05
2.27505e-06
-1.31149e-05
4.17719e-07
-1.28758e-05
-1.44656e-06
-1.22938e-05
-3.39469e-06
-1.12669e-05
-5.35092e-06
-9.66447e-06
-7.08299e-06
-7.36178e-06
-8.17016e-06
-4.39742e-06
-7.89899e-06
-1.37805e-06
-5.43578e-06
1.20525e-07
-9.75785e-07
1.40107e-06
-8.61489e-07
1.20909e-06
-2.36034e-06
2.97757e-06
-4.23013e-06
4.77426e-06
-6.27603e-06
6.42991e-06
-8.21706e-06
7.49847e-06
-9.83065e-06
7.72071e-06
-1.10401e-05
7.13011e-06
-1.18719e-05
5.94279e-06
-1.23879e-05
4.36702e-06
-1.26608e-05
2.54793e-06
-1.27813e-05
5.38282e-07
-1.27361e-05
-1.49176e-06
-1.25163e-05
-3.61456e-06
-1.20427e-05
-5.82445e-06
-1.11293e-05
-7.99646e-06
-9.48789e-06
-9.81153e-06
-6.81925e-06
-1.05676e-05
-3.22191e-06
-9.03312e-06
-2.61337e-07
-3.93636e-06
1.13973e-06
-1.08627e-06
2.29537e-06
-2.78259e-06
4.67389e-06
-4.67497e-06
6.66664e-06
-6.53162e-06
8.28656e-06
-8.12836e-06
9.09521e-06
-9.33418e-06
8.92653e-06
-1.0145e-05
7.94093e-06
-1.06259e-05
6.42371e-06
-1.08672e-05
4.6083e-06
-1.09686e-05
2.64937e-06
-1.10517e-05
6.21292e-07
-1.11026e-05
-1.44079e-06
-1.11377e-05
-3.57952e-06
-1.11277e-05
-5.83436e-06
-1.09194e-05
-8.20483e-06
-1.01855e-05
-1.05454e-05
-8.43178e-06
-1.23213e-05
-5.24247e-06
-1.22224e-05
-1.15832e-06
-8.02051e-06
-1.85855e-08
-1.11017e-06
3.40554e-06
-2.75695e-06
6.32066e-06
-4.45356e-06
8.36326e-06
-5.98832e-06
9.82132e-06
-7.20118e-06
1.03081e-05
-8.02976e-06
9.75511e-06
-8.51173e-06
8.4229e-06
-8.73406e-06
6.64605e-06
-8.80031e-06
4.67455e-06
-8.80737e-06
2.65643e-06
-8.83759e-06
6.51508e-07
-8.90929e-06
-1.36909e-06
-9.04239e-06
-3.44643e-06
-9.24842e-06
-5.62833e-06
-9.47109e-06
-7.98216e-06
-9.47933e-06
-1.05372e-05
-8.75427e-06
-1.30464e-05
-6.5378e-06
-1.44389e-05
-2.42362e-06
-1.21347e-05
-2.4422e-06
-9.35565e-07
4.34111e-06
-2.34664e-06
7.73173e-06
-3.73337e-06
9.74999e-06
-4.91227e-06
1.10002e-05
-5.78241e-06
1.11782e-05
-6.32689e-06
1.02996e-05
-6.60283e-06
8.69884e-06
-6.70121e-06
6.74444e-06
-6.71804e-06
4.69138e-06
-6.72623e-06
2.66462e-06
-6.76137e-06
6.86644e-07
-6.84035e-06
-1.2901e-06
-6.98416e-06
-3.30262e-06
-7.22339e-06
-5.38911e-06
-7.5754e-06
-7.63014e-06
-7.94976e-06
-1.01629e-05
-7.93699e-06
-1.30591e-05
-6.7192e-06
-1.56567e-05
-3.58762e-06
-1.52663e-05
-6.02982e-06
-6.25203e-07
4.96631e-06
-1.68781e-06
8.79434e-06
-2.72106e-06
1.07832e-05
-3.56032e-06
1.18395e-05
-4.15004e-06
1.17679e-05
-4.50033e-06
1.06499e-05
-4.67006e-06
8.86857e-06
-4.73761e-06
6.81198e-06
-4.7752e-06
4.72898e-06
-4.82627e-06
2.71569e-06
-4.90077e-06
7.61137e-07
-5.00496e-06
-1.18591e-06
-5.14866e-06
-3.15892e-06
-5.36045e-06
-5.17732e-06
-5.69544e-06
-7.29515e-06
-6.1675e-06
-9.69079e-06
-6.55929e-06
-1.26674e-05
-6.13016e-06
-1.60858e-05
-3.92517e-06
-1.74712e-05
-9.955e-06
-2.32795e-07
5.1991e-06
-8.93792e-07
9.45534e-06
-1.56565e-06
1.14551e-05
-2.09551e-06
1.23693e-05
-2.45569e-06
1.21281e-05
-2.67042e-06
1.08646e-05
-2.78791e-06
8.98606e-06
-2.86139e-06
6.88546e-06
-2.93543e-06
4.80302e-06
-3.03196e-06
2.81222e-06
-3.15371e-06
8.82888e-07
-3.30024e-06
-1.03938e-06
-3.47163e-06
-2.98753e-06
-3.68002e-06
-4.96893e-06
-3.97591e-06
-6.99926e-06
-4.44163e-06
-9.22507e-06
-5.02528e-06
-1.20837e-05
-5.12553e-06
-1.59856e-05
-3.55956e-06
-1.90372e-05
-1.35146e-05
1.63731e-07
5.03537e-06
-7.01223e-08
9.68919e-06
-4.0322e-07
1.17882e-05
-6.54388e-07
1.26205e-05
-8.09523e-07
1.22832e-05
-8.99744e-07
1.09548e-05
-9.64436e-07
9.05075e-06
-1.03548e-06
6.9565e-06
-1.12946e-06
4.89699e-06
-1.25413e-06
2.93689e-06
-1.41203e-06
1.04079e-06
-1.60532e-06
-8.46102e-07
-1.83246e-06
-2.76038e-06
-2.09121e-06
-4.71019e-06
-2.40889e-06
-6.68157e-06
-2.87715e-06
-8.75681e-06
-3.56111e-06
-1.13997e-05
-4.02627e-06
-1.55204e-05
-3.02631e-06
-2.00372e-05
-1.65409e-05
5.01962e-07
4.53341e-06
7.00087e-07
9.49106e-06
7.43455e-07
1.17448e-05
7.79208e-07
1.25848e-05
8.24211e-07
1.22382e-05
8.53125e-07
1.09259e-05
8.46267e-07
9.05761e-06
7.95427e-07
7.00734e-06
7.01507e-07
4.99091e-06
5.66248e-07
3.07215e-06
3.84492e-07
1.22255e-06
1.5005e-07
-6.1166e-07
-1.38689e-07
-2.47164e-06
-4.88377e-07
-4.3605e-06
-9.02774e-07
-6.26718e-06
-1.4256e-06
-8.23398e-06
-2.2043e-06
-1.06211e-05
-2.95417e-06
-1.47705e-05
-2.46106e-06
-2.05303e-05
-1.90019e-05
7.58783e-07
3.77463e-06
1.35797e-06
8.89187e-06
1.75202e-06
1.13508e-05
2.0827e-06
1.22541e-05
2.3569e-06
1.1964e-05
2.54445e-06
1.07384e-05
2.63721e-06
8.96485e-06
2.64588e-06
6.99867e-06
2.58451e-06
5.05228e-06
2.45963e-06
3.19702e-06
2.26371e-06
1.41848e-06
1.98267e-06
-3.30623e-07
1.61708e-06
-2.10605e-06
1.16197e-06
-3.90539e-06
6.13004e-07
-5.71821e-06
-8.11521e-08
-7.53983e-06
-9.54931e-07
-9.74727e-06
-1.91806e-06
-1.38074e-05
-1.92472e-06
-2.05236e-05
-2.09266e-05
8.74244e-07
2.90038e-06
1.81664e-06
7.94947e-06
2.56086e-06
1.06066e-05
3.20417e-06
1.16108e-05
3.75404e-06
1.14142e-05
4.16721e-06
1.03252e-05
4.42782e-06
8.70425e-06
4.54983e-06
6.87666e-06
4.55616e-06
5.04595e-06
4.46194e-06
3.29124e-06
4.26511e-06
1.61531e-06
3.93315e-06
1.33897e-09
3.48662e-06
-1.65952e-06
2.89992e-06
-3.31869e-06
2.17419e-06
-4.99248e-06
1.32835e-06
-6.69399e-06
2.71853e-07
-8.69078e-06
-9.55146e-07
-1.25804e-05
-1.42582e-06
-2.0053e-05
-2.23525e-05
8.10125e-07
2.09026e-06
1.96217e-06
6.79742e-06
3.00859e-06
9.56015e-06
3.98553e-06
1.06338e-05
4.86603e-06
1.05337e-05
5.58405e-06
9.60718e-06
6.10047e-06
8.18783e-06
6.41825e-06
6.55889e-06
6.55821e-06
4.90599e-06
6.53832e-06
3.31112e-06
6.35688e-06
1.79675e-06
6.01125e-06
3.46972e-07
5.46837e-06
-1.11664e-06
4.73566e-06
-2.58598e-06
3.80523e-06
-4.06205e-06
2.706e-06
-5.59476e-06
1.39818e-06
-7.38296e-06
-1.50736e-07
-1.10315e-05
-9.10381e-07
-1.92933e-05
-2.32629e-05
5.80466e-07
1.50979e-06
1.76754e-06
5.61035e-06
3.11111e-06
8.21658e-06
4.46726e-06
9.27768e-06
5.7385e-06
9.26241e-06
6.82624e-06
8.51945e-06
7.66504e-06
7.34903e-06
8.24222e-06
5.9817e-06
8.57013e-06
4.57807e-06
8.66551e-06
3.21574e-06
8.53508e-06
1.92718e-06
8.176e-06
7.06049e-07
7.54423e-06
-4.84863e-07
6.6571e-06
-1.69886e-06
5.50195e-06
-2.9069e-06
4.11978e-06
-4.21258e-06
2.58399e-06
-5.84717e-06
9.65822e-07
-9.41332e-06
-1.40406e-07
-1.81871e-05
-2.34033e-05
1.53776e-07
1.35602e-06
1.04653e-06
4.71759e-06
2.52961e-06
6.73351e-06
4.25787e-06
7.54942e-06
5.98606e-06
7.53422e-06
7.52647e-06
6.97904e-06
8.77641e-06
6.09909e-06
9.70608e-06
5.05203e-06
1.03106e-05
3.97358e-06
1.06013e-05
2.92497e-06
1.05843e-05
1.94418e-06
1.02652e-05
1.02524e-06
9.59783e-06
1.82465e-07
8.60432e-06
-7.05342e-07
7.27476e-06
-1.57734e-06
5.66113e-06
-2.59896e-06
3.92433e-06
-4.11037e-06
2.24794e-06
-7.73693e-06
6.5588e-07
-1.6595e-05
-2.27474e-05
-5.18698e-07
1.87472e-06
2.03035e-07
3.99585e-06
1.76531e-06
5.17123e-06
3.8367e-06
5.47803e-06
6.00019e-06
5.37073e-06
7.96892e-06
5.01031e-06
9.60631e-06
4.4617e-06
1.08708e-05
3.78752e-06
1.17449e-05
3.09945e-06
1.22449e-05
2.42502e-06
1.23742e-05
1.81485e-06
1.21527e-05
1.24674e-06
1.16044e-05
7.30841e-07
1.06998e-05
1.99229e-07
9.44367e-06
-3.21224e-07
7.90929e-06
-1.06457e-06
6.28249e-06
-2.48357e-06
4.46445e-06
-5.91889e-06
2.05879e-06
-1.41894e-05
-2.06886e-05
-4.18105e-06
6.05576e-06
-3.64369e-06
3.45849e-06
-1.24451e-06
2.77205e-06
1.56021e-06
2.67332e-06
4.30681e-06
2.62414e-06
6.8484e-06
2.46871e-06
9.07146e-06
2.23864e-06
1.09156e-05
1.94338e-06
1.23623e-05
1.65273e-06
1.34386e-05
1.34873e-06
1.41615e-05
1.09196e-06
1.45757e-05
8.32487e-07
1.4669e-05
6.37547e-07
1.44505e-05
4.17794e-07
1.39155e-05
2.13728e-07
1.308e-05
-2.29022e-07
1.19319e-05
-1.33555e-06
1.01157e-05
-4.10266e-06
5.6392e-06
-9.71284e-06
-1.50494e-05
6.05576e-06
9.51425e-06
1.22863e-05
1.49596e-05
1.75838e-05
2.00525e-05
2.22911e-05
2.42345e-05
2.58872e-05
2.7236e-05
2.83279e-05
2.91604e-05
2.97979e-05
3.02157e-05
3.04295e-05
3.02004e-05
2.88649e-05
2.47622e-05
1.50494e-05
)
;

boundaryField
{
    movingWall
    {
        type            calculated;
        value           uniform 0;
    }
    fixedWalls
    {
        type            calculated;
        value           uniform 0;
    }
    frontAndBack
    {
        type            empty;
        value           nonuniform List<scalar> 0();
    }
}


// ************************************************************************* //
