/*--------------------------------*- C++ -*----------------------------------*\
| =========                 |                                                 |
| \\      /  F ield         | OpenFOAM: The Open Source CFD Toolbox           |
|  \\    /   O peration     | Version:  2212                                  |
|   \\  /    A nd           | Website:  www.openfoam.com                      |
|    \\/     M anipulation  |                                                 |
\*---------------------------------------------------------------------------*/
FoamFile
{
    version     2.0;
    format      ascii;
    arch        "LSB;label=32;scalar=64";
    class       volVectorField;
    location    "6.6";
    object      U;
}
// * * * * * * * * * * * * * * * * * * * * * * * * * * * * * * * * * * * * * //

dimensions      [0 1 -1 0 0 0 0];

internalField   nonuniform List<vector> 
400
(
(0.00168041 -0.0016819 0)
(0.00483361 -0.0018902 0)
(0.00658258 -0.00119959 0)
(0.00566514 -0.000574387 0)
(0.00156336 0.000184633 0)
(-0.00683409 0.00173926 0)
(-0.020605 0.00478352 0)
(-0.039526 0.00872975 0)
(-0.0607841 0.0112856 0)
(-0.0791047 0.0105086 0)
(-0.0897821 0.00677491 0)
(-0.0904414 0.00167268 0)
(-0.0802186 -0.00361038 0)
(-0.0600023 -0.00826831 0)
(-0.0335438 -0.0108418 0)
(-0.00532481 -0.00979318 0)
(0.0166905 -0.00477756 0)
(0.0244457 0.00277084 0)
(0.0161681 0.00646681 0)
(0.00431487 0.00471452 0)
(0.00171742 -0.00505817 0)
(0.00315393 -0.00402508 0)
(-0.000428865 0.000591052 0)
(-0.0113387 0.00644082 0)
(-0.0314242 0.0140439 0)
(-0.0611294 0.0237598 0)
(-0.0968044 0.0330404 0)
(-0.1314 0.0370713 0)
(-0.158904 0.033503 0)
(-0.176034 0.0233973 0)
(-0.181386 0.00911564 0)
(-0.175025 -0.00697522 0)
(-0.157522 -0.0231532 0)
(-0.129629 -0.0368915 0)
(-0.0936104 -0.0445468 0)
(-0.0522071 -0.0418292 0)
(-0.0114234 -0.0263392 0)
(0.0168637 -0.00129518 0)
(0.0178579 0.0162076 0)
(0.00553978 0.0148111 0)
(-0.000242721 -0.00576779 0)
(-0.00538731 0.000813083 0)
(-0.0196125 0.0142992 0)
(-0.0444945 0.031222 0)
(-0.080309 0.0494172 0)
(-0.122146 0.0642819 0)
(-0.162269 0.0705063 0)
(-0.195175 0.0659959 0)
(-0.218757 0.0521714 0)
(-0.232422 0.0315303 0)
(-0.236181 0.00642951 0)
(-0.230703 -0.0210853 0)
(-0.216301 -0.048834 0)
(-0.192473 -0.0731838 0)
(-0.158955 -0.088988 0)
(-0.115713 -0.0892048 0)
(-0.0645568 -0.0670258 0)
(-0.0138346 -0.0226871 0)
(0.00947219 0.0178921 0)
(0.00415512 0.0235654 0)
(-0.00347215 0.000468291 0)
(-0.0175114 0.0172475 0)
(-0.0435013 0.0414861 0)
(-0.0796454 0.0681578 0)
(-0.122894 0.0911071 0)
(-0.16576 0.103788 0)
(-0.20181 0.102848 0)
(-0.229117 0.0896284 0)
(-0.247945 0.0673005 0)
(-0.258894 0.0385751 0)
(-0.262803 0.00533588 0)
(-0.260477 -0.0310764 0)
(-0.251856 -0.0683975 0)
(-0.235894 -0.103677 0)
(-0.210602 -0.131426 0)
(-0.173279 -0.142839 0)
(-0.121363 -0.125739 0)
(-0.0568355 -0.0708607 0)
(-0.000994857 0.00353606 0)
(0.00474199 0.0282218 0)
(-0.00665981 0.0147927 0)
(-0.0287156 0.0441042 0)
(-0.0632557 0.0770588 0)
(-0.1044 0.108859 0)
(-0.147191 0.131133 0)
(-0.184467 0.138119 0)
(-0.212786 0.129435 0)
(-0.232553 0.108693 0)
(-0.245058 0.0797636 0)
(-0.252026 0.045439 0)
(-0.255143 0.00726095 0)
(-0.25533 -0.0339484 0)
(-0.252363 -0.0770107 0)
(-0.245699 -0.120599 0)
(-0.232524 -0.160732 0)
(-0.208225 -0.188951 0)
(-0.166751 -0.189923 0)
(-0.103412 -0.142856 0)
(-0.0221839 -0.0388747 0)
(0.00737678 0.0270783 0)
(-0.00850506 0.0348704 0)
(-0.0351543 0.0766129 0)
(-0.073045 0.114894 0)
(-0.113189 0.147619 0)
(-0.150426 0.16594 0)
(-0.179268 0.165878 0)
(-0.198774 0.149678 0)
(-0.210503 0.122436 0)
(-0.216436 0.0884991 0)
(-0.219054 0.0508541 0)
(-0.220317 0.0109746 0)
(-0.221222 -0.0307023 0)
(-0.221968 -0.0746344 0)
(-0.222662 -0.121185 0)
(-0.221115 -0.169124 0)
(-0.212237 -0.212961 0)
(-0.187943 -0.238506 0)
(-0.13963 -0.218484 0)
(-0.0628236 -0.118924 0)
(0.00583969 0.014186 0)
(-0.00828572 0.0569861 0)
(-0.0353147 0.109964 0)
(-0.0717839 0.150416 0)
(-0.106999 0.181083 0)
(-0.136611 0.193768 0)
(-0.156999 0.186377 0)
(-0.16889 0.163224 0)
(-0.174406 0.130457 0)
(-0.175957 0.0928382 0)
(-0.176037 0.0533817 0)
(-0.176141 0.0133309 0)
(-0.176943 -0.0272461 0)
(-0.17899 -0.0694707 0)
(-0.182823 -0.114595 0)
(-0.187803 -0.163719 0)
(-0.190305 -0.215697 0)
(-0.182444 -0.261567 0)
(-0.154216 -0.275106 0)
(-0.0993554 -0.205862 0)
(-0.00890683 -0.0146372 0)
(-0.00612916 0.0775643 0)
(-0.029767 0.140494 0)
(-0.0613783 0.181131 0)
(-0.0898266 0.208224 0)
(-0.111817 0.214806 0)
(-0.125337 0.200483 0)
(-0.132005 0.171261 0)
(-0.134132 0.134114 0)
(-0.134168 0.094027 0)
(-0.134046 0.0537053 0)
(-0.134439 0.0138732 0)
(-0.135531 -0.0258169 0)
(-0.137776 -0.066355 0)
(-0.141865 -0.108932 0)
(-0.148413 -0.155506 0)
(-0.156115 -0.208434 0)
(-0.159003 -0.265787 0)
(-0.146699 -0.308048 0)
(-0.112214 -0.277145 0)
(-0.0309492 -0.0753211 0)
(-0.00272578 0.0935675 0)
(-0.0203988 0.165567 0)
(-0.0451143 0.205505 0)
(-0.0662919 0.228475 0)
(-0.0815452 0.22943 0)
(-0.0900205 0.209446 0)
(-0.0936328 0.175701 0)
(-0.0945205 0.135678 0)
(-0.0947729 0.0943602 0)
(-0.0955478 0.0539662 0)
(-0.0968854 0.0145937 0)
(-0.098692 -0.0245108 0)
(-0.101136 -0.0640902 0)
(-0.104722 -0.104807 0)
(-0.110597 -0.148264 0)
(-0.119496 -0.198395 0)
(-0.128283 -0.259661 0)
(-0.126484 -0.32336 0)
(-0.107449 -0.334682 0)
(-0.0373344 -0.163378 0)
(0.00122022 0.102702 0)
(-0.00893171 0.183393 0)
(-0.02562 0.223046 0)
(-0.0396063 0.242646 0)
(-0.0490746 0.239404 0)
(-0.0539355 0.21543 0)
(-0.055889 0.178679 0)
(-0.0565826 0.136994 0)
(-0.0575247 0.0952687 0)
(-0.0592522 0.0551879 0)
(-0.061536 0.0162992 0)
(-0.0642324 -0.02242 0)
(-0.0673332 -0.0615881 0)
(-0.0710181 -0.101416 0)
(-0.0762205 -0.142584 0)
(-0.0845115 -0.18873 0)
(-0.09601 -0.248196 0)
(-0.100624 -0.324211 0)
(-0.0951538 -0.372139 0)
(-0.0309158 -0.242505 0)
(0.00511469 0.103863 0)
(0.00295863 0.192983 0)
(-0.00538071 0.233531 0)
(-0.01249 0.250669 0)
(-0.0168743 0.244576 0)
(-0.0187544 0.218358 0)
(-0.0194334 0.180299 0)
(-0.0199509 0.138235 0)
(-0.0212399 0.0968085 0)
(-0.0234694 0.0573253 0)
(-0.0263538 0.0190603 0)
(-0.0298333 -0.0191029 0)
(-0.0339245 -0.0578304 0)
(-0.0385679 -0.0971836 0)
(-0.0443111 -0.137091 0)
(-0.0523856 -0.179951 0)
(-0.065722 -0.235466 0)
(-0.0742093 -0.317973 0)
(-0.08119 -0.396636 0)
(-0.0229389 -0.307051 0)
(0.00844831 0.0973925 0)
(0.014209 0.193972 0)
(0.0140932 0.23705 0)
(0.0137 0.253445 0)
(0.0143235 0.246357 0)
(0.015521 0.219647 0)
(0.0163818 0.181601 0)
(0.0164369 0.139898 0)
(0.0152986 0.0989892 0)
(0.0130195 0.060118 0)
(0.00985123 0.0225957 0)
(0.00574634 -0.014697 0)
(0.000561943 -0.0525558 0)
(-0.00555545 -0.0910863 0)
(-0.0130145 -0.129925 0)
(-0.0219606 -0.170083 0)
(-0.0377055 -0.220494 0)
(-0.0487371 -0.304326 0)
(-0.0679073 -0.408383 0)
(-0.0144605 -0.359932 0)
(0.0103148 0.0844271 0)
(0.0233936 0.186381 0)
(0.0310511 0.233176 0)
(0.0369755 0.249993 0)
(0.0426317 0.243143 0)
(0.0475805 0.217357 0)
(0.0510111 0.180599 0)
(0.0526792 0.140206 0)
(0.0525388 0.100475 0)
(0.0508006 0.0627167 0)
(0.0476857 0.0264222 0)
(0.0430799 -0.00947436 0)
(0.0368155 -0.0458735 0)
(0.0290136 -0.0829394 0)
(0.0188778 -0.12031 0)
(0.00756708 -0.158222 0)
(-0.011836 -0.204201 0)
(-0.0242674 -0.286325 0)
(-0.0558586 -0.410896 0)
(-0.00614228 -0.401788 0)
(0.00986221 0.0671985 0)
(0.0289942 0.170587 0)
(0.0443063 0.222096 0)
(0.056837 0.241168 0)
(0.068119 0.23623 0)
(0.077794 0.212867 0)
(0.0850023 0.17858 0)
(0.0894429 0.140253 0)
(0.0911928 0.102121 0)
(0.0905542 0.0657312 0)
(0.0878599 0.0309432 0)
(0.0828115 -0.00326493 0)
(0.0753071 -0.0374367 0)
(0.0656313 -0.0721547 0)
(0.0524055 -0.107228 0)
(0.0374971 -0.142544 0)
(0.0130808 -0.184041 0)
(3.46789e-05 -0.263094 0)
(-0.0448213 -0.406608 0)
(0.00275773 -0.436182 0)
(0.00691805 0.0493868 0)
(0.0293245 0.148888 0)
(0.0510515 0.203524 0)
(0.0699125 0.224417 0)
(0.0873719 0.221548 0)
(0.103049 0.201389 0)
(0.115702 0.170802 0)
(0.124648 0.135927 0)
(0.1298 0.100756 0)
(0.131405 0.0669682 0)
(0.12973 0.034812 0)
(0.124805 0.00346022 0)
(0.116183 -0.0273763 0)
(0.104467 -0.0585603 0)
(0.0874038 -0.0901388 0)
(0.068245 -0.122726 0)
(0.0382168 -0.16065 0)
(0.0238056 -0.237012 0)
(-0.0344694 -0.398872 0)
(0.0134631 -0.464364 0)
(0.00238251 0.034638 0)
(0.0236061 0.123851 0)
(0.0508945 0.179857 0)
(0.0766026 0.202828 0)
(0.101246 0.202503 0)
(0.124107 0.1861 0)
(0.143538 0.16005 0)
(0.158324 0.129634 0)
(0.168048 0.0984649 0)
(0.17292 0.0682327 0)
(0.172884 0.0395327 0)
(0.168652 0.0119569 0)
(0.158825 -0.0148429 0)
(0.145109 -0.0416026 0)
(0.123837 -0.0686079 0)
(0.100332 -0.0973852 0)
(0.0645187 -0.13254 0)
(0.0469484 -0.207341 0)
(-0.0227392 -0.387021 0)
(0.0285161 -0.485516 0)
(-0.00342329 0.0286412 0)
(0.0100475 0.101484 0)
(0.0370551 0.148631 0)
(0.0688923 0.169368 0)
(0.10176 0.170574 0)
(0.133453 0.158281 0)
(0.161425 0.137852 0)
(0.183945 0.113462 0)
(0.199971 0.0881944 0)
(0.209875 0.0635796 0)
(0.212788 0.0403618 0)
(0.210528 0.0184199 0)
(0.200273 -0.00262104 0)
(0.185658 -0.0232251 0)
(0.160875 -0.0438653 0)
(0.134295 -0.0676125 0)
(0.0928118 -0.101563 0)
(0.069819 -0.17992 0)
(-0.00439953 -0.370014 0)
(0.0521454 -0.491621 0)
(-0.0139936 0.018544 0)
(-0.00751317 0.0881824 0)
(0.0191862 0.124163 0)
(0.0563866 0.137261 0)
(0.0975065 0.136837 0)
(0.137856 0.12765 0)
(0.174077 0.112995 0)
(0.203891 0.0952254 0)
(0.225762 0.0767672 0)
(0.240833 0.0586368 0)
(0.246857 0.0417877 0)
(0.247768 0.0261175 0)
(0.238442 0.0117803 0)
(0.226641 -0.00199132 0)
(0.201676 -0.0160139 0)
(0.177736 -0.0349432 0)
(0.133438 -0.0677229 0)
(0.107781 -0.145956 0)
(0.0374463 -0.326114 0)
(0.0923569 -0.45587 0)
(-0.106006 0.0824368 0)
(-0.0777477 0.0690076 0)
(-0.0485699 0.0733594 0)
(0.00375274 0.0778616 0)
(0.057236 0.0781845 0)
(0.109935 0.0739158 0)
(0.157072 0.0665819 0)
(0.199403 0.0571825 0)
(0.231491 0.0475158 0)
(0.259624 0.0378701 0)
(0.275344 0.0292162 0)
(0.290498 0.0212423 0)
(0.290862 0.0144975 0)
(0.29499 0.00812285 0)
(0.278722 0.00116322 0)
(0.271542 -0.00997502 0)
(0.232266 -0.0355354 0)
(0.218109 -0.0954053 0)
(0.150203 -0.229723 0)
(0.170671 -0.341459 0)
(0.129976 0.103749 0)
(0.158335 0.0752413 0)
(0.21219 0.0532432 0)
(0.270697 0.0416353 0)
(0.323263 0.0359213 0)
(0.375688 0.0319529 0)
(0.420263 0.0289184 0)
(0.46556 0.0255818 0)
(0.498638 0.0229042 0)
(0.533874 0.0197127 0)
(0.553306 0.0175516 0)
(0.579115 0.0146153 0)
(0.585259 0.0131724 0)
(0.603611 0.0103549 0)
(0.595049 0.00939364 0)
(0.603571 0.00500879 0)
(0.567783 9.63196e-05 0)
(0.547626 -0.0183119 0)
(0.435713 -0.0504146 0)
(0.336764 -0.101388 0)
)
;

boundaryField
{
    movingWall
    {
        type            fixedValue;
        value           uniform (1 0 0);
    }
    fixedWalls
    {
        type            noSlip;
    }
    frontAndBack
    {
        type            empty;
    }
}


// ************************************************************************* //
