/*--------------------------------*- C++ -*----------------------------------*\
| =========                 |                                                 |
| \\      /  F ield         | OpenFOAM: The Open Source CFD Toolbox           |
|  \\    /   O peration     | Version:  2212                                  |
|   \\  /    A nd           | Website:  www.openfoam.com                      |
|    \\/     M anipulation  |                                                 |
\*---------------------------------------------------------------------------*/
FoamFile
{
    version     2.0;
    format      ascii;
    arch        "LSB;label=32;scalar=64";
    class       volScalarField;
    location    "13.4";
    object      p;
}
// * * * * * * * * * * * * * * * * * * * * * * * * * * * * * * * * * * * * * //

dimensions      [0 2 -2 0 0 0 0];

internalField   nonuniform List<scalar> 
400
(
2.64232e-07
-0.000150751
-0.000534836
-0.00107204
-0.00173277
-0.00249425
-0.00318539
-0.00359796
-0.00356573
-0.00293447
-0.00154891
0.000619056
0.00324928
0.0055138
0.00653346
0.00592256
0.00400174
0.0021493
0.0011103
0.00104124
0.000116134
-5.82839e-05
-0.00037723
-0.000764406
-0.00124433
-0.00188846
-0.00270659
-0.00354392
-0.00408041
-0.00393883
-0.00284683
-0.000825232
0.00168904
0.00396061
0.00512439
0.00474277
0.00310264
0.0013744
0.000592806
0.000683852
0.000536251
0.00026478
-7.75132e-05
-0.000559874
-0.00134759
-0.00258099
-0.00421958
-0.00598427
-0.00740308
-0.0079444
-0.00726471
-0.00546248
-0.0028921
-0.000195071
0.00179134
0.00242734
0.0017084
0.000501695
-0.000396496
-0.000393204
0.00115177
0.000741078
0.000191686
-0.000775058
-0.00245146
-0.00493827
-0.00799569
-0.0111211
-0.013704
-0.0151776
-0.0152075
-0.0138405
-0.0112942
-0.00802964
-0.00475281
-0.0022103
-0.000870983
-0.000706824
-0.00128944
-0.00191876
0.00158317
0.000973562
-2.30728e-05
-0.00192439
-0.00500709
-0.00918062
-0.0139144
-0.0184805
-0.0222169
-0.0246536
-0.0255293
-0.0247235
-0.0223641
-0.0187441
-0.0143052
-0.0096563
-0.00559272
-0.00294951
-0.00219387
-0.00401859
0.00129323
0.000444873
-0.00119756
-0.00430473
-0.00900553
-0.0148812
-0.0210735
-0.026716
-0.031192
-0.0341794
-0.0355462
-0.0351902
-0.0331975
-0.0297193
-0.0249
-0.0189615
-0.0125059
-0.00694895
-0.0044015
-0.00652481
-4.8451e-05
-0.00114772
-0.00349971
-0.00779723
-0.0139331
-0.0211151
-0.028237
-0.0344086
-0.0391295
-0.0422329
-0.0437207
-0.0436113
-0.0419734
-0.0388794
-0.0343114
-0.0281577
-0.0205395
-0.0127034
-0.00785537
-0.00774856
-0.00245064
-0.00374237
-0.00669889
-0.0119138
-0.0190405
-0.0269826
-0.034505
-0.0407801
-0.0454518
-0.048478
-0.0499407
-0.049932
-0.0485312
-0.0457892
-0.041663
-0.0359273
-0.0283262
-0.0193716
-0.0118228
-0.00798108
-0.00553783
-0.00691544
-0.010264
-0.0160224
-0.0236588
-0.0318903
-0.0394522
-0.0456139
-0.0501385
-0.0530587
-0.0544879
-0.054528
-0.0532537
-0.0507267
-0.0469629
-0.0418127
-0.0348684
-0.0259482
-0.0167097
-0.00999505
-0.00873397
-0.0100861
-0.013598
-0.0195427
-0.027287
-0.0354879
-0.0429131
-0.0489108
-0.0533106
-0.0561687
-0.0575926
-0.0576638
-0.0564454
-0.0540122
-0.050452
-0.0457612
-0.0396347
-0.0315246
-0.0223218
-0.0143404
-0.0115043
-0.0127582
-0.0162196
-0.0220548
-0.0296077
-0.0375894
-0.0448273
-0.0507003
-0.0550438
-0.0578953
-0.0593377
-0.0594292
-0.0582199
-0.0557899
-0.0522877
-0.0478531
-0.0424317
-0.0353832
-0.0271985
-0.0191798
-0.0135496
-0.0146189
-0.0178562
-0.0233158
-0.0304315
-0.0380634
-0.0451185
-0.0509506
-0.05533
-0.0582415
-0.0597292
-0.0598316
-0.0585895
-0.056084
-0.0525163
-0.0481388
-0.0432074
-0.0370568
-0.0300324
-0.0224177
-0.0148376
-0.0155681
-0.0183521
-0.0232105
-0.0296937
-0.0368793
-0.0437652
-0.0496409
-0.0541557
-0.0572018
-0.0587709
-0.058878
-0.0575587
-0.0549166
-0.0511778
-0.0466564
-0.0419659
-0.0363005
-0.0302265
-0.0228963
-0.0154679
-0.0157222
-0.0177774
-0.0217465
-0.0273899
-0.0340319
-0.0407509
-0.0467411
-0.0514935
-0.0547689
-0.0564829
-0.0566239
-0.0552022
-0.0523535
-0.0483466
-0.0435822
-0.0387309
-0.0331417
-0.0280998
-0.0202795
-0.0155745
-0.0152983
-0.0163381
-0.0190879
-0.0236532
-0.0296343
-0.0361719
-0.0423362
-0.0474281
-0.05104
-0.0529807
-0.053184
-0.0516914
-0.0485918
-0.044227
-0.0390541
-0.033782
-0.0280717
-0.0242317
-0.0143851
-0.0152769
-0.0145502
-0.0142608
-0.015426
-0.0186849
-0.0238948
-0.0302316
-0.036615
-0.0421382
-0.0462016
-0.0484898
-0.0488668
-0.0473535
-0.0440212
-0.0392491
-0.0335191
-0.0276413
-0.0216294
-0.0180535
-0.00383293
-0.0146621
-0.0136182
-0.0117069
-0.0110811
-0.0129537
-0.0173804
-0.0235342
-0.0301706
-0.0361935
-0.0408118
-0.043579
-0.044262
-0.0428509
-0.0393766
-0.0341854
-0.0276898
-0.0206823
-0.0132762
-0.00678573
0.016053
-0.0145833
-0.0126572
-0.00864851
-0.00623465
-0.00691011
-0.0107459
-0.016818
-0.0237401
-0.0302988
-0.0355395
-0.0389039
-0.0400353
-0.0388778
-0.0354482
-0.029896
-0.0222759
-0.0128726
-0.000688081
0.0166951
0.0570639
-0.0117946
-0.0118307
-0.00572613
-0.00177504
-0.00176501
-0.00540477
-0.0115753
-0.018815
-0.0258757
-0.0316877
-0.0356625
-0.0373621
-0.0366855
-0.0333555
-0.0272243
-0.0175416
-0.00314819
0.0204904
0.0607045
0.129821
-0.0295169
-0.0106298
-0.000608889
0.0030808
0.00244823
-0.00155704
-0.00799952
-0.0155535
-0.0229763
-0.029174
-0.0335321
-0.0355882
-0.0352014
-0.0319559
-0.0252277
-0.01286
0.00942266
0.0511716
0.122878
0.226076
)
;

boundaryField
{
    movingWall
    {
        type            zeroGradient;
    }
    fixedWalls
    {
        type            zeroGradient;
    }
    frontAndBack
    {
        type            empty;
    }
}


// ************************************************************************* //
