/*--------------------------------*- C++ -*----------------------------------*\
| =========                 |                                                 |
| \\      /  F ield         | OpenFOAM: The Open Source CFD Toolbox           |
|  \\    /   O peration     | Version:  2212                                  |
|   \\  /    A nd           | Website:  www.openfoam.com                      |
|    \\/     M anipulation  |                                                 |
\*---------------------------------------------------------------------------*/
FoamFile
{
    version     2.0;
    format      ascii;
    arch        "LSB;label=32;scalar=64";
    class       volScalarField;
    location    "13.4";
    object      T;
}
// * * * * * * * * * * * * * * * * * * * * * * * * * * * * * * * * * * * * * //

dimensions      [0 0 0 1 0 0 0];

internalField   nonuniform List<scalar> 
400
(
0.946998
0.948138
0.950457
0.953887
0.957884
0.961525
0.964129
0.965639
0.966452
0.967003
0.967504
0.96802
0.968573
0.969143
0.969642
0.969925
0.969757
0.968886
0.96745
0.966274
0.94846
0.949859
0.952663
0.956674
0.960914
0.964034
0.965559
0.966092
0.966277
0.966416
0.966696
0.967228
0.968048
0.96911
0.970199
0.970988
0.970973
0.969775
0.967892
0.966536
0.950745
0.952624
0.956108
0.960302
0.963601
0.965
0.964959
0.964308
0.963493
0.962875
0.962772
0.963403
0.964777
0.966851
0.96925
0.971424
0.972452
0.971416
0.968705
0.967023
0.952984
0.955358
0.959156
0.962557
0.964014
0.963395
0.961592
0.959293
0.957021
0.955341
0.954685
0.955416
0.957442
0.960807
0.965053
0.969515
0.972972
0.97381
0.970803
0.968166
0.954707
0.957365
0.960869
0.962775
0.96207
0.959288
0.955395
0.951104
0.94718
0.944318
0.943026
0.943726
0.946305
0.950857
0.956969
0.963984
0.970668
0.975114
0.974577
0.97029
0.955843
0.958489
0.961207
0.961295
0.958361
0.95335
0.947278
0.94104
0.935602
0.931699
0.929846
0.930381
0.933293
0.938635
0.94614
0.955244
0.964871
0.973237
0.977389
0.973399
0.956476
0.958842
0.960494
0.958744
0.953737
0.946666
0.938652
0.930823
0.924255
0.919663
0.917474
0.917862
0.920879
0.926549
0.934772
0.945205
0.956978
0.968447
0.976977
0.977858
0.956746
0.958703
0.959289
0.955929
0.949143
0.940316
0.930748
0.92177
0.914493
0.909555
0.907237
0.907565
0.91055
0.916188
0.924505
0.93547
0.948616
0.962466
0.974294
0.980246
0.95677
0.958287
0.957937
0.953297
0.945133
0.934997
0.924344
0.914629
0.906949
0.901849
0.899478
0.899782
0.902704
0.908177
0.91622
0.927031
0.940744
0.956385
0.970852
0.979173
0.956639
0.957791
0.956804
0.951366
0.942316
0.931312
0.919949
0.909761
0.901817
0.896578
0.894114
0.894349
0.8972
0.902533
0.910242
0.920525
0.934043
0.950761
0.96774
0.978362
0.956407
0.957304
0.955961
0.950147
0.940673
0.929274
0.917614
0.907225
0.899125
0.893726
0.891083
0.891147
0.893849
0.899031
0.906445
0.916094
0.928886
0.945891
0.964847
0.977844
0.956102
0.956879
0.955524
0.949853
0.940503
0.929186
0.917586
0.907193
0.89899
0.8934
0.890508
0.890297
0.892721
0.897624
0.904683
0.913651
0.925384
0.942042
0.96253
0.977561
0.95572
0.95649
0.955349
0.950196
0.941424
0.930646
0.919506
0.909417
0.901322
0.895658
0.892552
0.892011
0.894018
0.898431
0.904923
0.913107
0.923547
0.939225
0.960703
0.97753
0.955235
0.956112
0.95542
0.951201
0.943528
0.933799
0.923549
0.914088
0.90631
0.900681
0.897386
0.896433
0.89786
0.901528
0.907154
0.914298
0.923285
0.937588
0.959523
0.977704
0.954599
0.955644
0.955394
0.952191
0.94589
0.937611
0.928707
0.920333
0.913287
0.908014
0.904733
0.903441
0.904205
0.906916
0.911354
0.917217
0.924652
0.937114
0.958909
0.978087
0.953846
0.955104
0.955428
0.953408
0.948774
0.942324
0.935153
0.928222
0.922216
0.917529
0.914377
0.912792
0.912794
0.914358
0.917349
0.921627
0.927378
0.937621
0.95889
0.97869
0.953096
0.954333
0.954837
0.953671
0.950572
0.946059
0.940897
0.935792
0.93124
0.927552
0.924863
0.923252
0.922669
0.923174
0.924759
0.927406
0.931644
0.93994
0.960132
0.979716
0.952566
0.954054
0.954994
0.954548
0.952815
0.950103
0.946859
0.943513
0.940378
0.93769
0.935533
0.934009
0.933104
0.932878
0.933476
0.934837
0.937955
0.944334
0.962458
0.98101
0.945447
0.952493
0.952499
0.952276
0.951346
0.950095
0.948661
0.947325
0.946097
0.945191
0.944528
0.944229
0.944248
0.944563
0.945414
0.946502
0.949289
0.954142
0.967892
0.983227
0.961679
0.966316
0.968801
0.970294
0.971096
0.971601
0.971868
0.972139
0.972332
0.972629
0.972892
0.973287
0.973654
0.974152
0.974632
0.975296
0.976144
0.977931
0.98149
0.987764
)
;

boundaryField
{
    movingWall
    {
        type            fixedValue;
        value           uniform 1;
    }
    fixedWalls
    {
        type            zeroGradient;
    }
    frontAndBack
    {
        type            empty;
    }
}


// ************************************************************************* //
