/*--------------------------------*- C++ -*----------------------------------*\
| =========                 |                                                 |
| \\      /  F ield         | OpenFOAM: The Open Source CFD Toolbox           |
|  \\    /   O peration     | Version:  2212                                  |
|   \\  /    A nd           | Website:  www.openfoam.com                      |
|    \\/     M anipulation  |                                                 |
\*---------------------------------------------------------------------------*/
FoamFile
{
    version     2.0;
    format      ascii;
    arch        "LSB;label=32;scalar=64";
    class       volVectorField;
    location    "13.4";
    object      U;
}
// * * * * * * * * * * * * * * * * * * * * * * * * * * * * * * * * * * * * * //

dimensions      [0 1 -1 0 0 0 0];

internalField   nonuniform List<vector> 
400
(
(0.00168194 -0.00168364 0)
(0.00483898 -0.0018922 0)
(0.0065914 -0.00120072 0)
(0.00567507 -0.000575136 0)
(0.00157244 0.000183965 0)
(-0.00682905 0.00173938 0)
(-0.0206084 0.00478646 0)
(-0.0395419 0.00873632 0)
(-0.0608126 0.011293 0)
(-0.0791395 0.0105127 0)
(-0.0898147 0.00677449 0)
(-0.0904649 0.00166881 0)
(-0.0802269 -0.00361677 0)
(-0.0599939 -0.00827528 0)
(-0.0335202 -0.0108474 0)
(-0.00529148 -0.0097954 0)
(0.0167252 -0.00477289 0)
(0.0244717 0.00277713 0)
(0.0161792 0.0064725 0)
(0.00431661 0.00471726 0)
(0.00172064 -0.00506514 0)
(0.00316302 -0.00403251 0)
(-0.000416671 0.000587741 0)
(-0.0113296 0.00644178 0)
(-0.0314262 0.0140504 0)
(-0.0611511 0.0237747 0)
(-0.0968492 0.0330629 0)
(-0.131463 0.037094 0)
(-0.158977 0.0335184 0)
(-0.176109 0.0234017 0)
(-0.181456 0.00910902 0)
(-0.175084 -0.00699086 0)
(-0.157565 -0.0231755 0)
(-0.129654 -0.0369156 0)
(-0.0936156 -0.0445671 0)
(-0.0521942 -0.0418397 0)
(-0.0113991 -0.0263342 0)
(0.0168909 -0.00127832 0)
(0.0178729 0.0162247 0)
(0.00554234 0.0148205 0)
(-0.000239465 -0.00578074 0)
(-0.00538093 0.000801482 0)
(-0.0196095 0.0142996 0)
(-0.0445051 0.0312371 0)
(-0.0803439 0.0494478 0)
(-0.12221 0.0643237 0)
(-0.162357 0.0705498 0)
(-0.195281 0.0660315 0)
(-0.218875 0.0521928 0)
(-0.232544 0.0315344 0)
(-0.236299 0.00641563 0)
(-0.230813 -0.0211153 0)
(-0.216398 -0.0488761 0)
(-0.192551 -0.0732306 0)
(-0.159012 -0.0890304 0)
(-0.115745 -0.0892325 0)
(-0.0645643 -0.0670301 0)
(-0.0138208 -0.0226637 0)
(0.00948194 0.01792 0)
(0.00415547 0.023581 0)
(-0.00347199 0.000452803 0)
(-0.0175154 0.0172406 0)
(-0.0435181 0.0415027 0)
(-0.0796867 0.0681987 0)
(-0.122967 0.0911665 0)
(-0.165863 0.103855 0)
(-0.201937 0.102909 0)
(-0.229263 0.0896761 0)
(-0.248103 0.0673289 0)
(-0.259058 0.0385805 0)
(-0.262966 0.00531627 0)
(-0.260633 -0.0311203 0)
(-0.251999 -0.0684601 0)
(-0.236019 -0.10375 0)
(-0.210705 -0.131498 0)
(-0.173356 -0.142897 0)
(-0.121408 -0.125769 0)
(-0.0568461 -0.0708536 0)
(-0.000986611 0.00356794 0)
(0.00474231 0.0282419 0)
(-0.00666313 0.0147829 0)
(-0.0287319 0.0441131 0)
(-0.0632949 0.0771004 0)
(-0.104471 0.10893 0)
(-0.147295 0.131221 0)
(-0.184598 0.138209 0)
(-0.21294 0.129514 0)
(-0.232725 0.108755 0)
(-0.245244 0.0798024 0)
(-0.252221 0.0454492 0)
(-0.255341 0.0072392 0)
(-0.255522 -0.0340017 0)
(-0.252542 -0.0770899 0)
(-0.245858 -0.120696 0)
(-0.23266 -0.160833 0)
(-0.208335 -0.189043 0)
(-0.166831 -0.189991 0)
(-0.103455 -0.142885 0)
(-0.0221828 -0.038853 0)
(0.00738232 0.0271028 0)
(-0.00851171 0.0348754 0)
(-0.0351811 0.0766452 0)
(-0.073101 0.114965 0)
(-0.113278 0.147719 0)
(-0.150546 0.166053 0)
(-0.179412 0.165989 0)
(-0.19894 0.149778 0)
(-0.210689 0.122516 0)
(-0.21664 0.0885525 0)
(-0.219273 0.0508733 0)
(-0.220542 0.0109544 0)
(-0.221443 -0.030762 0)
(-0.222174 -0.0747283 0)
(-0.222846 -0.121302 0)
(-0.221271 -0.169249 0)
(-0.212366 -0.213082 0)
(-0.188044 -0.238609 0)
(-0.1397 -0.218557 0)
(-0.0628542 -0.118949 0)
(0.00584981 0.0142046 0)
(-0.00829413 0.0570107 0)
(-0.0353473 0.110023 0)
(-0.0718478 0.150514 0)
(-0.107094 0.181211 0)
(-0.136734 0.193906 0)
(-0.157144 0.186511 0)
(-0.169057 0.163346 0)
(-0.174598 0.130559 0)
(-0.176174 0.0929104 0)
(-0.176274 0.0534137 0)
(-0.176389 0.0133138 0)
(-0.177189 -0.0273153 0)
(-0.17922 -0.0695863 0)
(-0.183027 -0.114741 0)
(-0.187973 -0.163876 0)
(-0.190441 -0.215845 0)
(-0.18255 -0.261695 0)
(-0.154298 -0.275212 0)
(-0.0994134 -0.205931 0)
(-0.00890857 -0.0146247 0)
(-0.00613699 0.0776102 0)
(-0.0297988 0.140579 0)
(-0.0614399 0.181256 0)
(-0.089916 0.208376 0)
(-0.11193 0.214967 0)
(-0.12547 0.20064 0)
(-0.132163 0.171407 0)
(-0.134318 0.134241 0)
(-0.134383 0.0941233 0)
(-0.134285 0.0537556 0)
(-0.134693 0.0138631 0)
(-0.135786 -0.0258942 0)
(-0.138018 -0.0664945 0)
(-0.142079 -0.109116 0)
(-0.14859 -0.155706 0)
(-0.156251 -0.208621 0)
(-0.159104 -0.265945 0)
(-0.146773 -0.308178 0)
(-0.112271 -0.277247 0)
(-0.0309704 -0.075346 0)
(-0.00273103 0.0936332 0)
(-0.0204245 0.165676 0)
(-0.0451653 0.205653 0)
(-0.0663657 0.228649 0)
(-0.0816384 0.229612 0)
(-0.0901323 0.209625 0)
(-0.0937675 0.175872 0)
(-0.0946824 0.135833 0)
(-0.0949624 0.0944837 0)
(-0.0957599 0.0540378 0)
(-0.0971108 0.0145943 0)
(-0.098921 -0.0245906 0)
(-0.101357 -0.0642462 0)
(-0.104922 -0.105022 0)
(-0.110766 -0.148506 0)
(-0.119624 -0.198626 0)
(-0.128374 -0.259853 0)
(-0.126544 -0.323513 0)
(-0.107495 -0.334815 0)
(-0.0373555 -0.163466 0)
(0.00121929 0.102782 0)
(-0.00894671 0.183521 0)
(-0.0256535 0.223212 0)
(-0.0396563 0.242837 0)
(-0.0491387 0.239604 0)
(-0.0540138 0.21563 0)
(-0.0559856 0.178873 0)
(-0.0567005 0.137174 0)
(-0.0576632 0.0954164 0)
(-0.0594066 0.0552784 0)
(-0.0617003 0.016311 0)
(-0.064401 -0.0224969 0)
(-0.0674997 -0.0617509 0)
(-0.0711743 -0.101649 0)
(-0.076357 -0.142859 0)
(-0.0846174 -0.189003 0)
(-0.0960829 -0.248422 0)
(-0.100664 -0.324381 0)
(-0.0951831 -0.372284 0)
(-0.0309266 -0.242622 0)
(0.00511927 0.103949 0)
(0.00295739 0.193124 0)
(-0.00539201 0.233709 0)
(-0.0125107 0.250872 0)
(-0.016903 0.244789 0)
(-0.0187911 0.218571 0)
(-0.0194804 0.180509 0)
(-0.0200098 0.138432 0)
(-0.0213089 0.0969721 0)
(-0.0235453 0.0574297 0)
(-0.0264346 0.0190835 0)
(-0.0299183 -0.0191714 0)
(-0.034013 -0.057989 0)
(-0.0386567 -0.0974198 0)
(-0.044395 -0.13738 0)
(-0.0524543 -0.180252 0)
(-0.06577 -0.235724 0)
(-0.074227 -0.318161 0)
(-0.0812037 -0.39679 0)
(-0.0229436 -0.307184 0)
(0.00845933 0.0974748 0)
(0.0142233 0.194118 0)
(0.0141063 0.237233 0)
(0.0137118 0.253654 0)
(0.0143347 0.246576 0)
(0.0155319 0.219868 0)
(0.0163916 0.181818 0)
(0.0164454 0.140102 0)
(0.0153077 0.0991601 0)
(0.0130307 0.0602301 0)
(0.00986297 0.022628 0)
(0.0057545 -0.014755 0)
(0.000562289 -0.0527033 0)
(-0.00556391 -0.0913125 0)
(-0.0130324 -0.130211 0)
(-0.0219796 -0.170394 0)
(-0.0377201 -0.22077 0)
(-0.0487297 -0.304523 0)
(-0.0679046 -0.408533 0)
(-0.0144592 -0.360067 0)
(0.0103314 0.0844937 0)
(0.0234235 0.186521 0)
(0.0310886 0.233356 0)
(0.0370195 0.250199 0)
(0.0426825 0.243361 0)
(0.0476386 0.217576 0)
(0.051077 0.180813 0)
(0.0527539 0.140405 0)
(0.0526234 0.100641 0)
(0.0508951 0.0628277 0)
(0.0477859 0.0264587 0)
(0.0431777 -0.00952265 0)
(0.0369033 -0.0460072 0)
(0.0290867 -0.0831491 0)
(0.0189298 -0.12058 0)
(0.0076025 -0.158525 0)
(-0.0118137 -0.204483 0)
(-0.0242356 -0.286525 0)
(-0.0558423 -0.411039 0)
(-0.00613701 -0.401913 0)
(0.00988016 0.0672396 0)
(0.029036 0.17071 0)
(0.0443649 0.222263 0)
(0.05691 0.241363 0)
(0.0682064 0.236437 0)
(0.0778963 0.213076 0)
(0.0851203 0.178782 0)
(0.0895776 0.140439 0)
(0.0913448 0.102276 0)
(0.0907214 0.0658356 0)
(0.088037 0.0309813 0)
(0.0829878 -0.00330375 0)
(0.0754721 -0.0375529 0)
(0.0657781 -0.0723407 0)
(0.0525234 -0.107471 0)
(0.0375868 -0.142824 0)
(0.0131412 -0.184309 0)
(8.74662e-05 -0.263285 0)
(-0.0447939 -0.406738 0)
(0.00276676 -0.436288 0)
(0.0069313 0.0493984 0)
(0.0293713 0.148983 0)
(0.0511246 0.20367 0)
(0.0700076 0.224593 0)
(0.0874879 0.221738 0)
(0.103187 0.20158 0)
(0.115861 0.170984 0)
(0.12483 0.136091 0)
(0.130005 0.100891 0)
(0.131628 0.0670581 0)
(0.129966 0.0348451 0)
(0.125042 0.00342752 0)
(0.116409 -0.0274748 0)
(0.104675 -0.0587192 0)
(0.0875766 -0.0903477 0)
(0.068382 -0.12297 0)
(0.0383116 -0.16089 0)
(0.0238692 -0.237184 0)
(-0.0344351 -0.398983 0)
(0.0134768 -0.464443 0)
(0.00238765 0.0346255 0)
(0.0236466 0.123909 0)
(0.0509704 0.179971 0)
(0.0767087 0.202975 0)
(0.10138 0.202667 0)
(0.124269 0.186266 0)
(0.143729 0.160208 0)
(0.158542 0.129775 0)
(0.168292 0.0985789 0)
(0.173186 0.0683089 0)
(0.173162 0.0395621 0)
(0.168934 0.0119332 0)
(0.159096 -0.0149196 0)
(0.14536 -0.0417299 0)
(0.124051 -0.0687771 0)
(0.100504 -0.0975821 0)
(0.0646416 -0.132738 0)
(0.0470172 -0.207477 0)
(-0.022699 -0.387095 0)
(0.0285355 -0.485566 0)
(-0.00342648 0.0286108 0)
(0.0100759 0.101505 0)
(0.0371219 0.148711 0)
(0.0689941 0.169482 0)
(0.101896 0.170705 0)
(0.133623 0.158415 0)
(0.161628 0.137978 0)
(0.18418 0.113572 0)
(0.200234 0.0882818 0)
(0.210162 0.0636361 0)
(0.213089 0.0403809 0)
(0.210836 0.0183989 0)
(0.200569 -0.00268458 0)
(0.185934 -0.0233258 0)
(0.161113 -0.0439953 0)
(0.134487 -0.0677593 0)
(0.0929463 -0.101711 0)
(0.0698853 -0.180027 0)
(-0.00436253 -0.370059 0)
(0.0521637 -0.491645 0)
(-0.0140135 0.0185147 0)
(-0.00751627 0.0881755 0)
(0.0192246 0.1242 0)
(0.0564651 0.137331 0)
(0.0976271 0.136925 0)
(0.138018 0.127743 0)
(0.174279 0.113086 0)
(0.204132 0.0953052 0)
(0.226033 0.0768299 0)
(0.241131 0.058678 0)
(0.247168 0.0418019 0)
(0.248084 0.0261045 0)
(0.238743 0.0117374 0)
(0.226923 -0.00205646 0)
(0.201917 -0.0160989 0)
(0.177925 -0.0350361 0)
(0.133569 -0.0678144 0)
(0.107848 -0.146008 0)
(0.0374758 -0.32612 0)
(0.0923689 -0.455871 0)
(-0.106021 0.0824161 0)
(-0.0777611 0.0689893 0)
(-0.0485677 0.0733715 0)
(0.00378479 0.0778936 0)
(0.0573056 0.078229 0)
(0.110044 0.0739654 0)
(0.157218 0.0666299 0)
(0.199587 0.0572245 0)
(0.231703 0.0475472 0)
(0.259858 0.0378891 0)
(0.275587 0.0292201 0)
(0.290743 0.0212323 0)
(0.291093 0.0144731 0)
(0.295201 0.00808869 0)
(0.278894 0.00111958 0)
(0.271674 -0.0100178 0)
(0.232357 -0.0355721 0)
(0.218147 -0.0954209 0)
(0.150209 -0.229723 0)
(0.170672 -0.341455 0)
(0.129968 0.103744 0)
(0.158319 0.0752268 0)
(0.212163 0.0532263 0)
(0.270671 0.0416218 0)
(0.323248 0.0359124 0)
(0.375692 0.0319484 0)
(0.42029 0.0289164 0)
(0.465612 0.025581 0)
(0.49871 0.0229029 0)
(0.533962 0.0197104 0)
(0.553402 0.0175473 0)
(0.579212 0.0146092 0)
(0.585349 0.0131642 0)
(0.603686 0.0103451 0)
(0.595104 0.0093826 0)
(0.603603 0.00499899 0)
(0.567792 8.85765e-05 0)
(0.547612 -0.0183163 0)
(0.435689 -0.0504144 0)
(0.336753 -0.101385 0)
)
;

boundaryField
{
    movingWall
    {
        type            fixedValue;
        value           uniform (1 0 0);
    }
    fixedWalls
    {
        type            noSlip;
    }
    frontAndBack
    {
        type            empty;
    }
}


// ************************************************************************* //
