/*--------------------------------*- C++ -*----------------------------------*\
| =========                 |                                                 |
| \\      /  F ield         | OpenFOAM: The Open Source CFD Toolbox           |
|  \\    /   O peration     | Version:  2212                                  |
|   \\  /    A nd           | Website:  www.openfoam.com                      |
|    \\/     M anipulation  |                                                 |
\*---------------------------------------------------------------------------*/
FoamFile
{
    version     2.0;
    format      ascii;
    arch        "LSB;label=32;scalar=64";
    class       volScalarField;
    location    "13.3";
    object      T;
}
// * * * * * * * * * * * * * * * * * * * * * * * * * * * * * * * * * * * * * //

dimensions      [0 0 0 1 0 0 0];

internalField   nonuniform List<scalar> 
400
(
0.945928
0.947092
0.949461
0.952966
0.957049
0.960768
0.963428
0.964969
0.965797
0.966359
0.966869
0.967396
0.967959
0.96854
0.969048
0.969336
0.969164
0.968274
0.966808
0.965608
0.947422
0.948851
0.951715
0.955813
0.960144
0.963331
0.964887
0.965432
0.96562
0.965762
0.966048
0.96659
0.967425
0.968508
0.969618
0.970421
0.970404
0.96918
0.967259
0.965875
0.949757
0.951676
0.955236
0.95952
0.962889
0.964318
0.964277
0.963615
0.962784
0.962155
0.96205
0.962693
0.964093
0.966207
0.968652
0.970866
0.971913
0.970855
0.968088
0.966372
0.952045
0.95447
0.958349
0.961824
0.963313
0.962684
0.960846
0.958504
0.956189
0.954477
0.953808
0.954552
0.956617
0.960048
0.964375
0.968923
0.972445
0.973297
0.970228
0.967537
0.953806
0.956521
0.960101
0.96205
0.961334
0.958499
0.954531
0.950158
0.946159
0.943242
0.941925
0.942638
0.945266
0.949906
0.956136
0.963286
0.970098
0.974628
0.974079
0.969704
0.954968
0.95767
0.960449
0.960543
0.957554
0.952448
0.946259
0.939902
0.934359
0.930382
0.928493
0.929037
0.932005
0.937449
0.945098
0.954377
0.964189
0.972716
0.976948
0.972876
0.955615
0.958033
0.959725
0.957944
0.952842
0.945636
0.937468
0.929489
0.922795
0.918116
0.915884
0.916278
0.919353
0.925131
0.933512
0.944144
0.956144
0.967834
0.976529
0.977426
0.955892
0.957893
0.958497
0.955076
0.94816
0.939164
0.929412
0.920263
0.912847
0.907814
0.905451
0.905786
0.908827
0.914573
0.923048
0.934223
0.947621
0.961738
0.973794
0.979861
0.955918
0.957469
0.957119
0.952393
0.944074
0.933743
0.922886
0.912986
0.905159
0.899962
0.897545
0.897855
0.900832
0.906408
0.914604
0.925622
0.939597
0.955539
0.970286
0.978768
0.955785
0.956965
0.955965
0.950425
0.941203
0.929989
0.918408
0.908026
0.89993
0.894591
0.892079
0.892318
0.895223
0.900657
0.908512
0.918991
0.932768
0.949807
0.967113
0.977941
0.955548
0.956468
0.955106
0.949182
0.939528
0.927911
0.916029
0.905442
0.897187
0.891685
0.888991
0.889055
0.891809
0.897088
0.904643
0.914475
0.927511
0.944843
0.964164
0.977413
0.955238
0.956035
0.954659
0.948883
0.939355
0.927822
0.916001
0.905409
0.89705
0.891353
0.888405
0.88819
0.890659
0.895655
0.902847
0.911986
0.923942
0.94092
0.961803
0.977125
0.954849
0.955638
0.954481
0.949233
0.940293
0.929309
0.917957
0.907676
0.899426
0.893654
0.890489
0.889936
0.891981
0.896477
0.903092
0.911431
0.92207
0.938049
0.95994
0.977094
0.954354
0.955252
0.954552
0.950255
0.942438
0.932523
0.922077
0.912435
0.904509
0.898773
0.895415
0.894443
0.895896
0.899634
0.905366
0.912646
0.921803
0.936381
0.958737
0.97727
0.953706
0.954773
0.954524
0.951263
0.944844
0.936407
0.927334
0.918799
0.911619
0.906246
0.902901
0.901585
0.902362
0.905125
0.909646
0.915621
0.923197
0.935897
0.958112
0.977661
0.952937
0.954222
0.954557
0.952502
0.947782
0.941209
0.933902
0.926839
0.920718
0.915942
0.912729
0.911114
0.911115
0.912708
0.915756
0.920115
0.925975
0.936414
0.958092
0.978275
0.952172
0.953435
0.953954
0.952768
0.949613
0.945015
0.939755
0.934553
0.929914
0.926155
0.923415
0.921773
0.921178
0.921692
0.923307
0.926003
0.930322
0.938776
0.959358
0.979322
0.951632
0.95315
0.954112
0.953661
0.951897
0.949135
0.94583
0.94242
0.939225
0.936486
0.934288
0.932734
0.931812
0.931581
0.93219
0.933577
0.936754
0.943256
0.961729
0.980641
0.944375
0.951561
0.951569
0.951344
0.950397
0.949124
0.947663
0.946302
0.945051
0.944128
0.943453
0.943148
0.943168
0.943489
0.944356
0.945465
0.948306
0.953252
0.967268
0.982901
0.960926
0.965654
0.968188
0.969712
0.97053
0.971045
0.971318
0.971595
0.971792
0.972095
0.972364
0.972767
0.973141
0.973649
0.974138
0.974816
0.97568
0.977501
0.98113
0.987525
)
;

boundaryField
{
    movingWall
    {
        type            fixedValue;
        value           uniform 1;
    }
    fixedWalls
    {
        type            zeroGradient;
    }
    frontAndBack
    {
        type            empty;
    }
}


// ************************************************************************* //
