/*--------------------------------*- C++ -*----------------------------------*\
| =========                 |                                                 |
| \\      /  F ield         | OpenFOAM: The Open Source CFD Toolbox           |
|  \\    /   O peration     | Version:  2212                                  |
|   \\  /    A nd           | Website:  www.openfoam.com                      |
|    \\/     M anipulation  |                                                 |
\*---------------------------------------------------------------------------*/
FoamFile
{
    version     2.0;
    format      ascii;
    arch        "LSB;label=32;scalar=64";
    class       volScalarField;
    location    "18.4";
    object      T;
}
// * * * * * * * * * * * * * * * * * * * * * * * * * * * * * * * * * * * * * //

dimensions      [0 0 0 1 0 0 0];

internalField   nonuniform List<scalar> 
400
(
0.979991
0.980409
0.981256
0.98251
0.983976
0.985317
0.986284
0.986851
0.98716
0.98737
0.987562
0.987761
0.987974
0.988195
0.98839
0.988504
0.988447
0.988124
0.987589
0.987151
0.980524
0.981036
0.982062
0.983532
0.985092
0.986247
0.986816
0.987016
0.987084
0.987136
0.987242
0.987446
0.987762
0.988172
0.988595
0.988905
0.988909
0.988463
0.987758
0.987251
0.981355
0.982044
0.983323
0.984865
0.986081
0.986597
0.986575
0.986319
0.986002
0.985762
0.98572
0.985962
0.986491
0.987291
0.988217
0.989059
0.989466
0.989087
0.988068
0.987437
0.982169
0.983042
0.984437
0.985687
0.986216
0.985969
0.98527
0.98438
0.983503
0.982855
0.982601
0.982882
0.983662
0.984958
0.986593
0.988313
0.98965
0.989989
0.988863
0.98787
0.982795
0.983772
0.985056
0.985745
0.985457
0.984381
0.982878
0.981223
0.979711
0.978608
0.97811
0.978379
0.979373
0.981126
0.983479
0.986179
0.988752
0.99047
0.990288
0.988672
0.983205
0.984175
0.985161
0.985163
0.984024
0.982092
0.97975
0.977346
0.975249
0.973744
0.97303
0.973236
0.974359
0.976419
0.979311
0.982817
0.986521
0.989738
0.991344
0.989845
0.983429
0.984291
0.984872
0.984174
0.982241
0.979515
0.976425
0.973406
0.970872
0.9691
0.968255
0.968405
0.96957
0.971758
0.97493
0.978951
0.983484
0.987896
0.991175
0.991528
0.98352
0.984226
0.9844
0.983087
0.98047
0.977067
0.973377
0.969913
0.967104
0.965197
0.964301
0.964428
0.965581
0.967759
0.970969
0.975199
0.980265
0.985596
0.990143
0.992428
0.98352
0.984059
0.983876
0.982072
0.978925
0.975015
0.970906
0.967156
0.964189
0.962218
0.961302
0.961419
0.962549
0.964664
0.967771
0.971945
0.977232
0.983256
0.98882
0.992017
0.983464
0.983865
0.983439
0.981328
0.977838
0.973594
0.96921
0.965276
0.962206
0.96018
0.959227
0.959317
0.96042
0.962482
0.965462
0.969434
0.97465
0.981091
0.987623
0.991704
0.983371
0.983677
0.983116
0.980859
0.977205
0.972808
0.968308
0.964296
0.961165
0.959077
0.958054
0.958078
0.959124
0.961127
0.963994
0.967723
0.972661
0.979216
0.986511
0.991505
0.983252
0.983516
0.982951
0.980748
0.97714
0.972774
0.968297
0.964283
0.961112
0.95895
0.957831
0.957749
0.958687
0.960583
0.963312
0.966779
0.97131
0.977734
0.98562
0.991396
0.983105
0.983371
0.98289
0.980882
0.977495
0.973337
0.969038
0.965142
0.962013
0.959823
0.958622
0.958412
0.959188
0.960894
0.963404
0.966568
0.970602
0.97665
0.984918
0.991384
0.98292
0.983231
0.982925
0.981275
0.978309
0.974554
0.970599
0.966946
0.963941
0.961765
0.960491
0.960122
0.960674
0.962092
0.964267
0.967028
0.970501
0.97602
0.984464
0.991451
0.982678
0.983057
0.982924
0.981662
0.979222
0.976025
0.972589
0.969357
0.966636
0.964599
0.963331
0.962831
0.963126
0.964174
0.965889
0.968156
0.971029
0.975839
0.984229
0.991598
0.982392
0.982857
0.982948
0.982142
0.98034
0.977846
0.975078
0.972403
0.970084
0.968274
0.967056
0.966444
0.966445
0.967049
0.968205
0.969859
0.972082
0.976036
0.984222
0.991829
0.982107
0.982564
0.982729
0.982253
0.981041
0.979292
0.977297
0.975326
0.973568
0.972144
0.971106
0.970484
0.970259
0.970455
0.971068
0.972091
0.973729
0.976931
0.9847
0.992224
0.981906
0.982463
0.9828
0.982604
0.981919
0.980862
0.979604
0.97831
0.977099
0.976061
0.975228
0.97464
0.974291
0.974204
0.974435
0.974962
0.976165
0.978624
0.985595
0.99272
0.979172
0.981849
0.981837
0.981736
0.981366
0.980876
0.980317
0.979797
0.97932
0.978968
0.97871
0.978592
0.978598
0.978718
0.979044
0.979461
0.980533
0.9824
0.987684
0.993572
0.985372
0.987139
0.988085
0.988651
0.988952
0.98914
0.989238
0.989338
0.989408
0.989519
0.989618
0.989767
0.989906
0.990095
0.990277
0.990531
0.990856
0.99154
0.992907
0.995313
)
;

boundaryField
{
    movingWall
    {
        type            fixedValue;
        value           uniform 1;
    }
    fixedWalls
    {
        type            zeroGradient;
    }
    frontAndBack
    {
        type            empty;
    }
}


// ************************************************************************* //
