/*--------------------------------*- C++ -*----------------------------------*\
| =========                 |                                                 |
| \\      /  F ield         | OpenFOAM: The Open Source CFD Toolbox           |
|  \\    /   O peration     | Version:  2212                                  |
|   \\  /    A nd           | Website:  www.openfoam.com                      |
|    \\/     M anipulation  |                                                 |
\*---------------------------------------------------------------------------*/
FoamFile
{
    version     2.0;
    format      ascii;
    arch        "LSB;label=32;scalar=64";
    class       volScalarField;
    location    "20.5";
    object      T;
}
// * * * * * * * * * * * * * * * * * * * * * * * * * * * * * * * * * * * * * //

dimensions      [0 0 0 1 0 0 0];

internalField   nonuniform List<scalar> 
400
(
0.986628
0.986907
0.987472
0.988307
0.989285
0.990179
0.990824
0.991203
0.991409
0.99155
0.991679
0.991812
0.991955
0.992103
0.992233
0.99231
0.992272
0.992057
0.991699
0.991407
0.986983
0.987325
0.988009
0.988989
0.990029
0.9908
0.99118
0.991313
0.991359
0.991393
0.991464
0.9916
0.991812
0.992087
0.99237
0.992577
0.992581
0.992283
0.991812
0.991474
0.987537
0.987997
0.988849
0.989877
0.990688
0.991033
0.991017
0.990846
0.990634
0.990473
0.990445
0.990607
0.990961
0.991496
0.992116
0.99268
0.992953
0.9927
0.99202
0.991598
0.988079
0.988661
0.989592
0.990425
0.990778
0.990612
0.990143
0.989548
0.988961
0.988526
0.988357
0.988545
0.989067
0.989934
0.991028
0.99218
0.993075
0.993303
0.992551
0.991888
0.988496
0.989148
0.990004
0.990463
0.990269
0.989549
0.988542
0.987435
0.986422
0.985684
0.98535
0.985531
0.986196
0.987369
0.988945
0.990752
0.992474
0.993624
0.993503
0.992424
0.988769
0.989416
0.990073
0.990072
0.98931
0.988016
0.986448
0.984839
0.983435
0.982428
0.98195
0.982088
0.98284
0.984218
0.986154
0.988501
0.99098
0.993134
0.994209
0.993208
0.988918
0.989493
0.989879
0.98941
0.988116
0.986291
0.984222
0.982202
0.980505
0.979319
0.978753
0.978853
0.979633
0.981098
0.983222
0.985913
0.988948
0.991901
0.994095
0.994333
0.988978
0.989448
0.989562
0.988683
0.986931
0.984652
0.982182
0.979863
0.977982
0.976706
0.976106
0.976191
0.976963
0.978421
0.98057
0.983402
0.986793
0.990361
0.993404
0.994934
0.988978
0.989336
0.989211
0.988003
0.985896
0.983279
0.980528
0.978017
0.976031
0.974711
0.974098
0.974176
0.974933
0.976349
0.978429
0.981223
0.984763
0.988795
0.992519
0.994658
0.98894
0.989206
0.988919
0.987505
0.985169
0.982328
0.979392
0.976759
0.974703
0.973347
0.972708
0.972769
0.973507
0.974888
0.976883
0.979542
0.983035
0.987346
0.991718
0.994449
0.988878
0.989081
0.988703
0.987191
0.984745
0.981801
0.978789
0.976102
0.974006
0.972608
0.971923
0.971939
0.972639
0.973981
0.9759
0.978397
0.981703
0.986091
0.990974
0.994316
0.988798
0.988973
0.988593
0.987116
0.984701
0.981779
0.978781
0.976094
0.973971
0.972523
0.971774
0.971719
0.972347
0.973616
0.975444
0.977765
0.980799
0.9851
0.990378
0.994243
0.9887
0.988876
0.988552
0.987207
0.984939
0.982155
0.979277
0.976669
0.974574
0.973108
0.972303
0.972163
0.972682
0.973825
0.975506
0.977624
0.980325
0.984374
0.989907
0.994235
0.988576
0.988783
0.988576
0.98747
0.985484
0.98297
0.980322
0.977877
0.975865
0.974408
0.973555
0.973308
0.973677
0.974627
0.976083
0.977932
0.980257
0.983952
0.989604
0.994279
0.988414
0.988667
0.988575
0.98773
0.986095
0.983955
0.981655
0.979491
0.977669
0.976305
0.975456
0.975122
0.975319
0.976021
0.977169
0.978687
0.980611
0.983831
0.989446
0.994378
0.988223
0.988533
0.988593
0.988051
0.986844
0.985174
0.983321
0.98153
0.979977
0.978766
0.977951
0.977541
0.977541
0.977946
0.97872
0.979827
0.981316
0.983962
0.989442
0.994533
0.988032
0.988337
0.988446
0.988126
0.987314
0.986142
0.984807
0.983487
0.98231
0.981357
0.980662
0.980246
0.980095
0.980226
0.980637
0.981322
0.982418
0.984561
0.989762
0.994797
0.987898
0.98827
0.988494
0.988362
0.987902
0.987194
0.986352
0.985485
0.984674
0.983979
0.983422
0.983028
0.982794
0.982736
0.982891
0.983243
0.984049
0.985695
0.990361
0.995129
0.986068
0.987859
0.987849
0.987781
0.987533
0.987204
0.98683
0.986481
0.986162
0.985926
0.985753
0.985674
0.985678
0.985758
0.985976
0.986256
0.986973
0.988222
0.991759
0.995699
0.990216
0.991398
0.99203
0.992408
0.99261
0.992735
0.992801
0.992867
0.992914
0.992988
0.993054
0.993153
0.993246
0.993372
0.993495
0.993664
0.993881
0.99434
0.995254
0.996864
)
;

boundaryField
{
    movingWall
    {
        type            fixedValue;
        value           uniform 1;
    }
    fixedWalls
    {
        type            zeroGradient;
    }
    frontAndBack
    {
        type            empty;
    }
}


// ************************************************************************* //
