/*--------------------------------*- C++ -*----------------------------------*\
| =========                 |                                                 |
| \\      /  F ield         | OpenFOAM: The Open Source CFD Toolbox           |
|  \\    /   O peration     | Version:  2212                                  |
|   \\  /    A nd           | Website:  www.openfoam.com                      |
|    \\/     M anipulation  |                                                 |
\*---------------------------------------------------------------------------*/
FoamFile
{
    version     2.0;
    format      ascii;
    arch        "LSB;label=32;scalar=64";
    class       volVectorField;
    location    "10.5";
    object      U;
}
// * * * * * * * * * * * * * * * * * * * * * * * * * * * * * * * * * * * * * //

dimensions      [0 1 -1 0 0 0 0];

internalField   nonuniform List<vector> 
400
(
(0.00168171 -0.00168386 0)
(0.00483858 -0.00189229 0)
(0.0065911 -0.00120075 0)
(0.00567479 -0.000575135 0)
(0.00157218 0.000183981 0)
(-0.00682921 0.00173939 0)
(-0.0206084 0.0047864 0)
(-0.0395416 0.00873616 0)
(-0.0608119 0.0112928 0)
(-0.0791387 0.0105126 0)
(-0.0898139 0.00677451 0)
(-0.0904643 0.00166891 0)
(-0.0802268 -0.00361661 0)
(-0.0599942 -0.00827511 0)
(-0.0335209 -0.0108473 0)
(-0.00529239 -0.00979536 0)
(0.0167242 -0.00477303 0)
(0.024471 0.00277698 0)
(0.0161789 0.00647239 0)
(0.00431655 0.00471721 0)
(0.00172047 -0.00506534 0)
(0.00316265 -0.00403256 0)
(-0.000417084 0.000587722 0)
(-0.0113299 0.00644173 0)
(-0.0314263 0.0140503 0)
(-0.0611507 0.0237744 0)
(-0.0968482 0.0330624 0)
(-0.131462 0.0370934 0)
(-0.158975 0.033518 0)
(-0.176107 0.0234016 0)
(-0.181454 0.0091092 0)
(-0.175083 -0.00699045 0)
(-0.157564 -0.0231749 0)
(-0.129653 -0.036915 0)
(-0.0936156 -0.0445666 0)
(-0.0521946 -0.0418395 0)
(-0.0113997 -0.0263344 0)
(0.0168902 -0.00127879 0)
(0.0178725 0.0162243 0)
(0.00554225 0.0148203 0)
(-0.000239588 -0.00578061 0)
(-0.00538121 0.0008016 0)
(-0.0196097 0.0142995 0)
(-0.044505 0.0312367 0)
(-0.0803432 0.049447 0)
(-0.122208 0.0643226 0)
(-0.162355 0.0705487 0)
(-0.195279 0.0660305 0)
(-0.218872 0.0521922 0)
(-0.232541 0.0315342 0)
(-0.236296 0.00641599 0)
(-0.230811 -0.0211146 0)
(-0.216396 -0.048875 0)
(-0.192549 -0.0732294 0)
(-0.15901 -0.0890292 0)
(-0.115745 -0.0892318 0)
(-0.0645642 -0.06703 0)
(-0.0138211 -0.0226644 0)
(0.00948167 0.0179192 0)
(0.00415545 0.0235806 0)
(-0.00347203 0.000453069 0)
(-0.0175154 0.0172407 0)
(-0.0435179 0.0415022 0)
(-0.0796859 0.0681977 0)
(-0.122965 0.0911649 0)
(-0.165861 0.103853 0)
(-0.201934 0.102907 0)
(-0.229259 0.0896747 0)
(-0.248099 0.067328 0)
(-0.259054 0.0385803 0)
(-0.262962 0.00531675 0)
(-0.260629 -0.0311191 0)
(-0.251995 -0.0684584 0)
(-0.236016 -0.103748 0)
(-0.210702 -0.131496 0)
(-0.173354 -0.142895 0)
(-0.121406 -0.125768 0)
(-0.0568459 -0.0708539 0)
(-0.000986834 0.00356704 0)
(0.0047423 0.0282413 0)
(-0.00666308 0.0147831 0)
(-0.0287315 0.0441129 0)
(-0.0632941 0.0770994 0)
(-0.104469 0.108928 0)
(-0.147292 0.131218 0)
(-0.184595 0.138206 0)
(-0.212936 0.129512 0)
(-0.232721 0.108753 0)
(-0.245239 0.0798012 0)
(-0.252216 0.0454489 0)
(-0.255335 0.00723971 0)
(-0.255517 -0.0340003 0)
(-0.252537 -0.0770878 0)
(-0.245854 -0.120693 0)
(-0.232657 -0.160831 0)
(-0.208332 -0.189041 0)
(-0.166828 -0.189989 0)
(-0.103454 -0.142884 0)
(-0.0221828 -0.0388536 0)
(0.00738217 0.0271022 0)
(-0.00851156 0.0348753 0)
(-0.0351805 0.0766444 0)
(-0.0730997 0.114963 0)
(-0.113275 0.147716 0)
(-0.150543 0.16605 0)
(-0.179408 0.165986 0)
(-0.198936 0.149775 0)
(-0.210684 0.122514 0)
(-0.216635 0.0885509 0)
(-0.219267 0.0508727 0)
(-0.220536 0.0109549 0)
(-0.221437 -0.0307604 0)
(-0.222168 -0.0747258 0)
(-0.222841 -0.121299 0)
(-0.221267 -0.169246 0)
(-0.212363 -0.213078 0)
(-0.188041 -0.238606 0)
(-0.139698 -0.218555 0)
(-0.0628534 -0.118948 0)
(0.00584953 0.0142041 0)
(-0.00829393 0.0570101 0)
(-0.0353465 0.110021 0)
(-0.0718462 0.150512 0)
(-0.107091 0.181207 0)
(-0.136731 0.193902 0)
(-0.15714 0.186507 0)
(-0.169053 0.163342 0)
(-0.174593 0.130556 0)
(-0.176168 0.0929083 0)
(-0.176268 0.0534128 0)
(-0.176382 0.0133142 0)
(-0.177183 -0.0273134 0)
(-0.179214 -0.0695832 0)
(-0.183022 -0.114737 0)
(-0.187968 -0.163872 0)
(-0.190437 -0.215841 0)
(-0.182547 -0.261692 0)
(-0.154296 -0.275209 0)
(-0.0994118 -0.205929 0)
(-0.00890854 -0.0146251 0)
(-0.0061368 0.0776091 0)
(-0.029798 0.140577 0)
(-0.0614383 0.181253 0)
(-0.0899136 0.208372 0)
(-0.111927 0.214963 0)
(-0.125467 0.200636 0)
(-0.132159 0.171402 0)
(-0.134313 0.134238 0)
(-0.134377 0.0941205 0)
(-0.134279 0.0537541 0)
(-0.134686 0.0138633 0)
(-0.135779 -0.0258921 0)
(-0.138011 -0.0664907 0)
(-0.142073 -0.109111 0)
(-0.148585 -0.1557 0)
(-0.156248 -0.208616 0)
(-0.159101 -0.26594 0)
(-0.146771 -0.308175 0)
(-0.11227 -0.277244 0)
(-0.0309698 -0.0753454 0)
(-0.00273089 0.0936316 0)
(-0.0204238 0.165673 0)
(-0.045164 0.205649 0)
(-0.0663637 0.228645 0)
(-0.0816359 0.229607 0)
(-0.0901292 0.20962 0)
(-0.0937638 0.175867 0)
(-0.0946779 0.135828 0)
(-0.0949572 0.0944802 0)
(-0.095754 0.0540358 0)
(-0.0971046 0.0145942 0)
(-0.0989147 -0.0245885 0)
(-0.101351 -0.064242 0)
(-0.104917 -0.105016 0)
(-0.110761 -0.148499 0)
(-0.119621 -0.19862 0)
(-0.128372 -0.259847 0)
(-0.126542 -0.323508 0)
(-0.107494 -0.334811 0)
(-0.0373549 -0.163463 0)
(0.00121933 0.10278 0)
(-0.00894632 0.183518 0)
(-0.0256526 0.223207 0)
(-0.0396549 0.242832 0)
(-0.0491369 0.239598 0)
(-0.0540117 0.215624 0)
(-0.0559829 0.178867 0)
(-0.0566973 0.137169 0)
(-0.0576594 0.0954122 0)
(-0.0594024 0.0552758 0)
(-0.0616958 0.0163106 0)
(-0.0643964 -0.0224949 0)
(-0.0674951 -0.0617465 0)
(-0.07117 -0.101643 0)
(-0.0763532 -0.142852 0)
(-0.0846145 -0.188995 0)
(-0.0960809 -0.248416 0)
(-0.100663 -0.324377 0)
(-0.0951823 -0.37228 0)
(-0.0309263 -0.242619 0)
(0.00511916 0.103947 0)
(0.00295744 0.19312 0)
(-0.00539171 0.233704 0)
(-0.0125102 0.250867 0)
(-0.0169022 0.244783 0)
(-0.0187901 0.218565 0)
(-0.0194791 0.180503 0)
(-0.0200082 0.138426 0)
(-0.021307 0.0969674 0)
(-0.0235432 0.0574268 0)
(-0.0264323 0.0190828 0)
(-0.0299159 -0.0191696 0)
(-0.0340105 -0.0579847 0)
(-0.0386543 -0.0974134 0)
(-0.0443927 -0.137372 0)
(-0.0524524 -0.180244 0)
(-0.0657686 -0.235717 0)
(-0.0742265 -0.318156 0)
(-0.0812033 -0.396786 0)
(-0.0229435 -0.307181 0)
(0.00845905 0.0974727 0)
(0.014223 0.194114 0)
(0.014106 0.237228 0)
(0.0137115 0.253648 0)
(0.0143344 0.24657 0)
(0.0155316 0.219862 0)
(0.0163914 0.181812 0)
(0.0164452 0.140097 0)
(0.0153074 0.0991553 0)
(0.0130304 0.0602269 0)
(0.00986265 0.0226271 0)
(0.00575428 -0.0147535 0)
(0.000562283 -0.0526993 0)
(-0.00556367 -0.0913064 0)
(-0.0130319 -0.130203 0)
(-0.0219791 -0.170385 0)
(-0.0377197 -0.220762 0)
(-0.0487299 -0.304517 0)
(-0.0679047 -0.408529 0)
(-0.0144592 -0.360063 0)
(0.010331 0.084492 0)
(0.0234227 0.186518 0)
(0.0310876 0.233351 0)
(0.0370183 0.250193 0)
(0.0426812 0.243355 0)
(0.047637 0.21757 0)
(0.0510752 0.180807 0)
(0.0527518 0.140399 0)
(0.0526211 0.100636 0)
(0.0508925 0.0628245 0)
(0.0477831 0.0264577 0)
(0.0431751 -0.00952139 0)
(0.0369009 -0.0460036 0)
(0.0290847 -0.0831434 0)
(0.0189284 -0.120573 0)
(0.00760153 -0.158517 0)
(-0.0118143 -0.204475 0)
(-0.0242365 -0.28652 0)
(-0.0558428 -0.411035 0)
(-0.00613715 -0.40191 0)
(0.00987969 0.0672386 0)
(0.0290349 0.170707 0)
(0.0443633 0.222259 0)
(0.0569081 0.241358 0)
(0.0682041 0.236432 0)
(0.0778935 0.21307 0)
(0.0851171 0.178776 0)
(0.089574 0.140434 0)
(0.0913407 0.102272 0)
(0.0907168 0.0658326 0)
(0.0880322 0.0309802 0)
(0.0829829 -0.00330275 0)
(0.0754676 -0.0375497 0)
(0.0657741 -0.0723357 0)
(0.0525201 -0.107465 0)
(0.0375844 -0.142816 0)
(0.0131396 -0.184302 0)
(8.603e-05 -0.26328 0)
(-0.0447947 -0.406734 0)
(0.00276652 -0.436286 0)
(0.00693096 0.0493981 0)
(0.0293701 0.14898 0)
(0.0511227 0.203666 0)
(0.070005 0.224588 0)
(0.0874848 0.221733 0)
(0.103183 0.201574 0)
(0.115857 0.170979 0)
(0.124825 0.136087 0)
(0.129999 0.100887 0)
(0.131622 0.0670556 0)
(0.129959 0.0348442 0)
(0.125035 0.00342836 0)
(0.116403 -0.0274721 0)
(0.104669 -0.0587149 0)
(0.0875718 -0.090342 0)
(0.0683782 -0.122963 0)
(0.0383091 -0.160883 0)
(0.0238674 -0.237179 0)
(-0.034436 -0.39898 0)
(0.0134764 -0.464441 0)
(0.00238752 0.0346259 0)
(0.0236456 0.123908 0)
(0.0509684 0.179968 0)
(0.0767059 0.202971 0)
(0.101376 0.202662 0)
(0.124265 0.186261 0)
(0.143724 0.160203 0)
(0.158536 0.129771 0)
(0.168285 0.0985757 0)
(0.173178 0.0683067 0)
(0.173155 0.0395613 0)
(0.168927 0.0119338 0)
(0.159089 -0.0149175 0)
(0.145353 -0.0417264 0)
(0.124045 -0.0687724 0)
(0.1005 -0.0975767 0)
(0.0646383 -0.132732 0)
(0.0470154 -0.207473 0)
(-0.0227001 -0.387093 0)
(0.028535 -0.485565 0)
(-0.00342639 0.0286116 0)
(0.0100751 0.101504 0)
(0.0371202 0.148709 0)
(0.0689914 0.169479 0)
(0.101892 0.170702 0)
(0.133618 0.158411 0)
(0.161622 0.137975 0)
(0.184173 0.113569 0)
(0.200226 0.0882793 0)
(0.210155 0.0636345 0)
(0.213081 0.0403803 0)
(0.210828 0.0183995 0)
(0.200561 -0.00268287 0)
(0.185927 -0.0233231 0)
(0.161106 -0.0439918 0)
(0.134482 -0.0677553 0)
(0.0929427 -0.101707 0)
(0.0698835 -0.180024 0)
(-0.00436353 -0.370058 0)
(0.0521632 -0.491644 0)
(-0.0140129 0.0185155 0)
(-0.00751616 0.0881757 0)
(0.0192237 0.124199 0)
(0.0564631 0.137329 0)
(0.097624 0.136923 0)
(0.138014 0.127741 0)
(0.174274 0.113083 0)
(0.204125 0.095303 0)
(0.226026 0.0768282 0)
(0.241123 0.0586768 0)
(0.247159 0.0418015 0)
(0.248076 0.0261048 0)
(0.238735 0.0117385 0)
(0.226915 -0.00205469 0)
(0.201911 -0.0160966 0)
(0.17792 -0.0350336 0)
(0.133566 -0.0678119 0)
(0.107846 -0.146007 0)
(0.037475 -0.32612 0)
(0.0923686 -0.455871 0)
(-0.10602 0.0824167 0)
(-0.0777607 0.0689898 0)
(-0.0485677 0.0733712 0)
(0.003784 0.0778928 0)
(0.0573038 0.0782278 0)
(0.110041 0.073964 0)
(0.157215 0.0666286 0)
(0.199582 0.0572233 0)
(0.231697 0.0475463 0)
(0.259852 0.0378886 0)
(0.275581 0.02922 0)
(0.290736 0.0212325 0)
(0.291087 0.0144738 0)
(0.295196 0.00808961 0)
(0.278889 0.00112076 0)
(0.27167 -0.0100167 0)
(0.232355 -0.0355711 0)
(0.218146 -0.0954204 0)
(0.150208 -0.229723 0)
(0.170672 -0.341455 0)
(0.129969 0.103744 0)
(0.158319 0.0752271 0)
(0.212164 0.0532268 0)
(0.270672 0.0416221 0)
(0.323249 0.0359127 0)
(0.375692 0.0319485 0)
(0.42029 0.0289165 0)
(0.465611 0.025581 0)
(0.498708 0.0229029 0)
(0.53396 0.0197104 0)
(0.553399 0.0175474 0)
(0.579209 0.0146094 0)
(0.585346 0.0131644 0)
(0.603684 0.0103453 0)
(0.595103 0.00938289 0)
(0.603602 0.00499925 0)
(0.567792 8.87848e-05 0)
(0.547612 -0.0183162 0)
(0.435689 -0.0504144 0)
(0.336753 -0.101386 0)
)
;

boundaryField
{
    movingWall
    {
        type            fixedValue;
        value           uniform (1 0 0);
    }
    fixedWalls
    {
        type            noSlip;
    }
    frontAndBack
    {
        type            empty;
    }
}


// ************************************************************************* //
