/*--------------------------------*- C++ -*----------------------------------*\
| =========                 |                                                 |
| \\      /  F ield         | OpenFOAM: The Open Source CFD Toolbox           |
|  \\    /   O peration     | Version:  2212                                  |
|   \\  /    A nd           | Website:  www.openfoam.com                      |
|    \\/     M anipulation  |                                                 |
\*---------------------------------------------------------------------------*/
FoamFile
{
    version     2.0;
    format      ascii;
    arch        "LSB;label=32;scalar=64";
    class       volScalarField;
    location    "7.5";
    object      p;
}
// * * * * * * * * * * * * * * * * * * * * * * * * * * * * * * * * * * * * * //

dimensions      [0 2 -2 0 0 0 0];

internalField   nonuniform List<scalar> 
400
(
4.30549e-07
-0.000150517
-0.000534446
-0.00107147
-0.00173201
-0.00249325
-0.00318418
-0.00359663
-0.00356437
-0.00293319
-0.00154789
0.000619662
0.00324962
0.00551435
0.00653491
0.00592539
0.00400575
0.00215392
0.00111497
0.00104579
0.000116359
-5.79963e-05
-0.000376806
-0.000763871
-0.00124369
-0.00188763
-0.00270545
-0.00354243
-0.00407867
-0.00393707
-0.00284533
-0.000824158
0.00168982
0.00396158
0.00512621
0.00474587
0.00310704
0.00137918
0.000597606
0.000688447
0.000536362
0.000265022
-7.71431e-05
-0.000559371
-0.00134683
-0.00257975
-0.0042176
-0.00598146
-0.0073996
-0.00794067
-0.00726122
-0.00545946
-0.00288955
-0.000192667
0.00179415
0.00243101
0.00171303
0.000506739
-0.000391416
-0.000388371
0.00115158
0.000741036
0.00019188
-0.000774471
-0.00245013
-0.00493575
-0.00799162
-0.0111154
-0.013697
-0.0151699
-0.0151998
-0.0138333
-0.0112878
-0.0080241
-0.00474777
-0.00220539
-0.00086598
-0.000701728
-0.00128424
-0.00191369
0.0015824
0.000973083
-2.30248e-05
-0.00192334
-0.0050044
-0.00917568
-0.0139068
-0.0184703
-0.0222046
-0.0246399
-0.0255152
-0.02471
-0.0223519
-0.0187336
-0.0142964
-0.00964896
-0.00558653
-0.00294413
-0.00218887
-0.00401318
0.00129206
0.000444157
-0.0011973
-0.00430261
-0.00900062
-0.0148728
-0.0210613
-0.0267002
-0.0311732
-0.0341585
-0.0355245
-0.0351692
-0.0331783
-0.0297025
-0.024886
-0.0189504
-0.0124973
-0.00694252
-0.0043961
-0.0065188
-4.95415e-05
-0.00114818
-0.00349863
-0.00779336
-0.0139253
-0.0211025
-0.0282196
-0.0343865
-0.0391036
-0.0422042
-0.0436908
-0.043582
-0.0419463
-0.0388555
-0.0342914
-0.0281418
-0.0205276
-0.0126949
-0.00784909
-0.00774311
-0.00245102
-0.00374195
-0.0066964
-0.0119077
-0.0190293
-0.0269657
-0.0344822
-0.0407517
-0.0454186
-0.0484413
-0.0499023
-0.049894
-0.0484957
-0.0457576
-0.0416364
-0.035906
-0.02831
-0.0193601
-0.0118152
-0.00797594
-0.00553697
-0.00691367
-0.0102597
-0.0160138
-0.0236444
-0.0318693
-0.0394244
-0.0455797
-0.0500985
-0.0530144
-0.0544414
-0.0544818
-0.0532101
-0.0506878
-0.0469299
-0.0417862
-0.0348479
-0.0259332
-0.0166996
-0.0099885
-0.00873169
-0.0100829
-0.013592
-0.0195318
-0.0272698
-0.0354635
-0.0428812
-0.0488717
-0.0532652
-0.0561183
-0.0575397
-0.057611
-0.0563954
-0.0539673
-0.0504138
-0.0457303
-0.0396106
-0.0315065
-0.0223088
-0.0143309
-0.0115008
-0.0127537
-0.0162122
-0.0220423
-0.0295886
-0.0375627
-0.0447928
-0.0506581
-0.0549949
-0.0578412
-0.0592808
-0.0593723
-0.058166
-0.0557413
-0.0522463
-0.0478195
-0.0424056
-0.0353632
-0.0271834
-0.0191678
-0.0135454
-0.0146137
-0.0178481
-0.0233028
-0.0304117
-0.0380361
-0.0450833
-0.0509076
-0.0552801
-0.0581863
-0.0596712
-0.0597736
-0.0585345
-0.0560346
-0.0524744
-0.0481051
-0.0431814
-0.037037
-0.030017
-0.0224047
-0.0148332
-0.0155628
-0.0183441
-0.023198
-0.0296749
-0.0368532
-0.0437314
-0.0495995
-0.0541075
-0.0571485
-0.0587147
-0.0588219
-0.0575057
-0.0548694
-0.0511381
-0.0466251
-0.0419424
-0.0362832
-0.0302129
-0.0228846
-0.0154637
-0.0157174
-0.0177705
-0.0217356
-0.0273735
-0.0340088
-0.0407205
-0.0467034
-0.0514494
-0.0547198
-0.0564311
-0.0565722
-0.0551537
-0.0523109
-0.0483116
-0.0435557
-0.0387124
-0.033129
-0.0280898
-0.0202714
-0.0155705
-0.0152943
-0.0163327
-0.0190796
-0.0236404
-0.0296157
-0.0361466
-0.0423041
-0.0473899
-0.050997
-0.0529352
-0.0531388
-0.0516494
-0.0485556
-0.0441987
-0.0390343
-0.0337701
-0.0280656
-0.024227
-0.0143826
-0.0152734
-0.014547
-0.0142573
-0.0154209
-0.0186765
-0.0238816
-0.0302125
-0.0365896
-0.0421069
-0.0461658
-0.0484516
-0.0488289
-0.0473188
-0.0439924
-0.0392282
-0.0335068
-0.0276369
-0.0216304
-0.0180571
-0.0038372
-0.0146593
-0.013616
-0.0117053
-0.0110793
-0.0129501
-0.0173731
-0.0235217
-0.0301522
-0.0361695
-0.0407834
-0.0435481
-0.0442312
-0.0428231
-0.0393548
-0.0341715
-0.0276846
-0.0206852
-0.0132851
-0.00679794
0.0160423
-0.0145816
-0.012656
-0.0086487
-0.00623609
-0.00691091
-0.0107439
-0.0168114
-0.023728
-0.0302813
-0.0355175
-0.0388794
-0.0400109
-0.0388562
-0.0354319
-0.0298873
-0.0222761
-0.0128817
-0.000704017
0.0166762
0.0570484
-0.011794
-0.0118307
-0.00572837
-0.00177925
-0.00176918
-0.00540668
-0.011573
-0.0188074
-0.0258627
-0.0316701
-0.0356422
-0.0373414
-0.036667
-0.0333421
-0.0272185
-0.0175448
-0.00316057
0.020471
0.0606832
0.129804
-0.0295158
-0.0106304
-0.000612321
0.00307533
0.00244265
-0.00156053
-0.00799895
-0.0155477
-0.0229651
-0.0291581
-0.0335133
-0.0355687
-0.0351839
-0.0319431
-0.0252218
-0.0128625
0.00941131
0.0511538
0.122859
0.226061
)
;

boundaryField
{
    movingWall
    {
        type            zeroGradient;
    }
    fixedWalls
    {
        type            zeroGradient;
    }
    frontAndBack
    {
        type            empty;
    }
}


// ************************************************************************* //
