/*--------------------------------*- C++ -*----------------------------------*\
| =========                 |                                                 |
| \\      /  F ield         | OpenFOAM: The Open Source CFD Toolbox           |
|  \\    /   O peration     | Version:  2212                                  |
|   \\  /    A nd           | Website:  www.openfoam.com                      |
|    \\/     M anipulation  |                                                 |
\*---------------------------------------------------------------------------*/
FoamFile
{
    version     2.0;
    format      ascii;
    arch        "LSB;label=32;scalar=64";
    class       volScalarField;
    location    "7.5";
    object      T;
}
// * * * * * * * * * * * * * * * * * * * * * * * * * * * * * * * * * * * * * //

dimensions      [0 0 0 1 0 0 0];

internalField   nonuniform List<scalar> 
400
(
0.802017
0.807585
0.818797
0.835187
0.853906
0.870413
0.881611
0.887575
0.890467
0.89232
0.89393
0.895504
0.8971
0.898634
0.899809
0.900121
0.89874
0.894682
0.88832
0.883087
0.809407
0.816085
0.829409
0.848249
0.867678
0.881389
0.887717
0.889925
0.890864
0.89157
0.892607
0.894303
0.896752
0.899776
0.902676
0.904354
0.903144
0.897734
0.889817
0.883992
0.82083
0.829589
0.845819
0.865149
0.880073
0.886497
0.887151
0.885746
0.88372
0.882171
0.882065
0.884071
0.888219
0.894352
0.901274
0.907173
0.909001
0.903641
0.892574
0.885648
0.831954
0.842864
0.860417
0.876243
0.883666
0.882845
0.878007
0.871571
0.865026
0.860174
0.858313
0.860577
0.866705
0.876847
0.889587
0.902808
0.912486
0.913103
0.900395
0.889857
0.840589
0.852845
0.869387
0.879364
0.878948
0.871166
0.859938
0.847319
0.835689
0.827201
0.823362
0.825465
0.833186
0.846862
0.865316
0.886579
0.906755
0.919464
0.915008
0.898015
0.846512
0.858985
0.872784
0.876181
0.868321
0.853684
0.835812
0.817284
0.801168
0.789624
0.784145
0.785705
0.794286
0.810114
0.832516
0.859952
0.889258
0.914815
0.926559
0.91018
0.850187
0.861872
0.87204
0.869145
0.854696
0.833846
0.810154
0.786984
0.767693
0.754264
0.747891
0.749012
0.757796
0.774374
0.798599
0.829646
0.865122
0.900181
0.926474
0.927477
0.852225
0.862573
0.869166
0.860982
0.841056
0.814992
0.78675
0.760367
0.73919
0.724904
0.718239
0.719185
0.727778
0.74408
0.768315
0.800616
0.839856
0.881821
0.918284
0.936893
0.853131
0.861949
0.865458
0.853221
0.829147
0.799235
0.76789
0.739525
0.717343
0.70272
0.695972
0.696853
0.705199
0.720881
0.744086
0.775621
0.81621
0.863291
0.907575
0.9335
0.853275
0.86071
0.862101
0.847434
0.820751
0.788325
0.754991
0.725382
0.702553
0.687621
0.680649
0.681339
0.68945
0.704658
0.72676
0.756516
0.796211
0.846236
0.898059
0.93103
0.852887
0.85922
0.859415
0.84372
0.81585
0.782285
0.748139
0.718014
0.694785
0.679435
0.671971
0.672173
0.679848
0.694591
0.715782
0.743557
0.780867
0.831464
0.88912
0.929428
0.852106
0.857695
0.857711
0.842631
0.81525
0.781954
0.748
0.717863
0.694326
0.678417
0.67024
0.669664
0.67655
0.690504
0.710673
0.736428
0.770476
0.819828
0.882028
0.928573
0.850941
0.856119
0.856641
0.843365
0.817876
0.786184
0.753545
0.72423
0.700928
0.684753
0.675935
0.674416
0.680132
0.692718
0.711296
0.734795
0.764985
0.811246
0.876366
0.928483
0.849322
0.854421
0.856061
0.845823
0.823861
0.795337
0.765278
0.737698
0.715198
0.699028
0.689614
0.686904
0.690989
0.701491
0.717639
0.738185
0.764128
0.80622
0.872715
0.929033
0.847115
0.85241
0.855131
0.848143
0.830553
0.806433
0.780312
0.755809
0.735307
0.720051
0.710598
0.706891
0.709091
0.71689
0.72967
0.746567
0.768023
0.804619
0.870746
0.930225
0.844432
0.850085
0.854148
0.850776
0.838471
0.820004
0.799082
0.778788
0.76123
0.747573
0.738412
0.733812
0.733808
0.738311
0.746944
0.759284
0.775905
0.805954
0.870619
0.932107
0.841834
0.847334
0.851589
0.850615
0.843014
0.830496
0.815652
0.800788
0.787486
0.7767
0.76884
0.76412
0.762393
0.763813
0.768376
0.775996
0.788303
0.812707
0.874336
0.935302
0.839973
0.845881
0.851088
0.852014
0.848488
0.841474
0.832488
0.822949
0.813892
0.806064
0.799757
0.79527
0.792599
0.791892
0.793622
0.797572
0.806803
0.8258
0.881434
0.939345
0.817622
0.842356
0.843766
0.844509
0.842786
0.839847
0.836164
0.832633
0.829326
0.826916
0.825185
0.82451
0.824771
0.825892
0.828627
0.832047
0.840667
0.855591
0.898179
0.946278
0.871629
0.8874
0.896035
0.901424
0.904544
0.906653
0.907949
0.909201
0.910152
0.911394
0.912485
0.91397
0.915323
0.917084
0.918739
0.920989
0.92374
0.929455
0.940611
0.96055
)
;

boundaryField
{
    movingWall
    {
        type            fixedValue;
        value           uniform 1;
    }
    fixedWalls
    {
        type            zeroGradient;
    }
    frontAndBack
    {
        type            empty;
    }
}


// ************************************************************************* //
