/*--------------------------------*- C++ -*----------------------------------*\
| =========                 |                                                 |
| \\      /  F ield         | OpenFOAM: The Open Source CFD Toolbox           |
|  \\    /   O peration     | Version:  2212                                  |
|   \\  /    A nd           | Website:  www.openfoam.com                      |
|    \\/     M anipulation  |                                                 |
\*---------------------------------------------------------------------------*/
FoamFile
{
    version     2.0;
    format      ascii;
    arch        "LSB;label=32;scalar=64";
    class       volScalarField;
    location    "7.7";
    object      T;
}
// * * * * * * * * * * * * * * * * * * * * * * * * * * * * * * * * * * * * * //

dimensions      [0 0 0 1 0 0 0];

internalField   nonuniform List<scalar> 
400
(
0.812159
0.817358
0.827838
0.843167
0.86069
0.876172
0.886715
0.892374
0.895144
0.896918
0.898456
0.899966
0.901506
0.902997
0.904157
0.904505
0.90325
0.899461
0.893505
0.888609
0.819048
0.825293
0.837758
0.855394
0.873611
0.886505
0.89249
0.894583
0.895451
0.896094
0.897063
0.898678
0.901033
0.903962
0.906794
0.908481
0.907424
0.902371
0.894935
0.889473
0.829706
0.837908
0.853109
0.87123
0.885245
0.891285
0.891859
0.890443
0.888428
0.886881
0.886737
0.888645
0.892634
0.898558
0.905268
0.911032
0.912928
0.907976
0.897568
0.891054
0.840088
0.850314
0.866767
0.881607
0.888547
0.887678
0.882945
0.876662
0.870289
0.865556
0.863721
0.865877
0.871774
0.881555
0.893859
0.906652
0.916083
0.916881
0.904974
0.895047
0.848144
0.859633
0.87513
0.884441
0.883919
0.876353
0.865448
0.853209
0.841935
0.833696
0.829951
0.831952
0.839386
0.852579
0.870388
0.89091
0.910403
0.922764
0.918764
0.902756
0.853659
0.865344
0.878233
0.881287
0.873633
0.859455
0.842142
0.824207
0.808595
0.797393
0.792052
0.793521
0.801789
0.817072
0.838712
0.865204
0.893485
0.918151
0.929598
0.914234
0.857065
0.867991
0.877419
0.874465
0.860477
0.840303
0.817376
0.794953
0.776252
0.763205
0.756977
0.758006
0.766467
0.782486
0.805912
0.835927
0.870194
0.904019
0.929377
0.930552
0.858935
0.868585
0.874599
0.866582
0.847321
0.822114
0.794794
0.769251
0.748705
0.734802
0.728267
0.729111
0.737382
0.753139
0.776591
0.807847
0.845786
0.886308
0.921462
0.939392
0.859743
0.867938
0.871005
0.859099
0.835842
0.806924
0.776604
0.749131
0.727593
0.713343
0.706709
0.707476
0.715499
0.730655
0.753119
0.783655
0.822929
0.868423
0.911147
0.936115
0.859839
0.866725
0.867771
0.85353
0.827762
0.796421
0.764178
0.735494
0.713319
0.698757
0.691896
0.692468
0.700254
0.714943
0.736336
0.765156
0.803586
0.851952
0.901966
0.933734
0.859437
0.865288
0.865195
0.849963
0.823054
0.790621
0.757598
0.728415
0.705853
0.690886
0.683546
0.683641
0.690998
0.705227
0.725724
0.752617
0.788748
0.837689
0.893351
0.93219
0.858668
0.863832
0.863579
0.848935
0.8225
0.790337
0.757508
0.728323
0.705473
0.689973
0.681947
0.681289
0.687877
0.701331
0.720822
0.745741
0.778707
0.826454
0.886512
0.931366
0.857538
0.862335
0.86258
0.849662
0.825052
0.79445
0.762905
0.734531
0.711927
0.696186
0.687552
0.685986
0.691438
0.703557
0.721492
0.744204
0.773418
0.818178
0.88106
0.931281
0.855979
0.860729
0.862068
0.852064
0.830848
0.803312
0.774273
0.747595
0.725791
0.710079
0.700885
0.698177
0.70205
0.712144
0.72771
0.747542
0.772622
0.813342
0.877547
0.931812
0.853868
0.858822
0.861215
0.854328
0.837314
0.814032
0.78881
0.765126
0.745279
0.730476
0.721268
0.717608
0.719662
0.727136
0.739432
0.755715
0.776431
0.811824
0.875662
0.932963
0.851316
0.856624
0.86033
0.856917
0.844978
0.827139
0.80694
0.787335
0.770353
0.75712
0.748216
0.743711
0.743642
0.747929
0.756209
0.768076
0.784098
0.813146
0.875554
0.934778
0.848844
0.853997
0.8579
0.856799
0.84938
0.837266
0.822926
0.808567
0.795708
0.785266
0.777637
0.773033
0.771314
0.77263
0.77698
0.784287
0.796131
0.819706
0.879155
0.937858
0.847076
0.852649
0.857484
0.858218
0.854711
0.847885
0.839179
0.82995
0.821187
0.813608
0.807492
0.803127
0.800511
0.799787
0.801413
0.805184
0.814056
0.832382
0.886012
0.941752
0.825573
0.849134
0.850383
0.850995
0.849258
0.84637
0.842776
0.839336
0.836115
0.83376
0.83206
0.831376
0.831595
0.832642
0.835245
0.83851
0.846787
0.861147
0.902159
0.948427
0.877248
0.892308
0.900541
0.905665
0.908618
0.910605
0.911817
0.91299
0.913876
0.915046
0.916073
0.917479
0.918762
0.920436
0.922011
0.924157
0.926791
0.932274
0.943002
0.962155
)
;

boundaryField
{
    movingWall
    {
        type            fixedValue;
        value           uniform 1;
    }
    fixedWalls
    {
        type            zeroGradient;
    }
    frontAndBack
    {
        type            empty;
    }
}


// ************************************************************************* //
