/*--------------------------------*- C++ -*----------------------------------*\
| =========                 |                                                 |
| \\      /  F ield         | OpenFOAM: The Open Source CFD Toolbox           |
|  \\    /   O peration     | Version:  2212                                  |
|   \\  /    A nd           | Website:  www.openfoam.com                      |
|    \\/     M anipulation  |                                                 |
\*---------------------------------------------------------------------------*/
FoamFile
{
    version     2.0;
    format      ascii;
    arch        "LSB;label=32;scalar=64";
    class       volVectorField;
    location    "7.7";
    object      U;
}
// * * * * * * * * * * * * * * * * * * * * * * * * * * * * * * * * * * * * * //

dimensions      [0 1 -1 0 0 0 0];

internalField   nonuniform List<vector> 
400
(
(0.00168106 -0.00168343 0)
(0.00483656 -0.00189168 0)
(0.00658802 -0.00120039 0)
(0.00567138 -0.000574904 0)
(0.00156908 0.000184191 0)
(-0.00683095 0.00173934 0)
(-0.0206073 0.00478541 0)
(-0.0395363 0.00873397 0)
(-0.0608025 0.0112903 0)
(-0.0791271 0.0105112 0)
(-0.0898031 0.00677466 0)
(-0.0904565 0.00167022 0)
(-0.0802241 -0.00361445 0)
(-0.0599972 -0.00827275 0)
(-0.0335289 -0.0108454 0)
(-0.0053037 -0.00979461 0)
(0.0167125 -0.00477461 0)
(0.0244623 0.00277483 0)
(0.0161752 0.00647042 0)
(0.00431599 0.00471626 0)
(0.00171934 -0.00506322 0)
(0.00315949 -0.00403017 0)
(-0.000421279 0.000588783 0)
(-0.0113331 0.00644138 0)
(-0.0314257 0.0140481 0)
(-0.0611435 0.0237694 0)
(-0.0968333 0.0330548 0)
(-0.131441 0.0370858 0)
(-0.158951 0.0335128 0)
(-0.176082 0.0234001 0)
(-0.181431 0.00911142 0)
(-0.175063 -0.00698519 0)
(-0.15755 -0.0231674 0)
(-0.129645 -0.0369069 0)
(-0.0936139 -0.0445598 0)
(-0.0521991 -0.041836 0)
(-0.011408 -0.0263361 0)
(0.016881 -0.00128448 0)
(0.0178675 0.0162185 0)
(0.00554143 0.0148171 0)
(-0.000240708 -0.00577637 0)
(-0.00538342 0.000805425 0)
(-0.0196108 0.0142993 0)
(-0.0445015 0.0312317 0)
(-0.0803316 0.0494368 0)
(-0.122187 0.0643086 0)
(-0.162325 0.0705341 0)
(-0.195243 0.0660186 0)
(-0.218833 0.052185 0)
(-0.2325 0.0315329 0)
(-0.236257 0.00642064 0)
(-0.230773 -0.0211045 0)
(-0.216363 -0.0488608 0)
(-0.192523 -0.0732137 0)
(-0.158991 -0.089015 0)
(-0.115734 -0.0892225 0)
(-0.0645617 -0.0670286 0)
(-0.0138259 -0.0226723 0)
(0.00947836 0.0179098 0)
(0.00415535 0.0235753 0)
(-0.00347211 0.000458216 0)
(-0.0175141 0.017243 0)
(-0.0435123 0.0414967 0)
(-0.0796721 0.068184 0)
(-0.122941 0.091145 0)
(-0.165826 0.103831 0)
(-0.201891 0.102887 0)
(-0.22921 0.0896587 0)
(-0.248046 0.0673184 0)
(-0.258999 0.0385784 0)
(-0.262907 0.00532333 0)
(-0.260576 -0.0311044 0)
(-0.251947 -0.0684373 0)
(-0.235973 -0.103723 0)
(-0.210668 -0.131471 0)
(-0.173328 -0.142876 0)
(-0.121391 -0.125758 0)
(-0.0568424 -0.0708563 0)
(-0.00098965 0.00355629 0)
(0.0047422 0.0282346 0)
(-0.00666198 0.0147864 0)
(-0.0287261 0.0441099 0)
(-0.063281 0.0770854 0)
(-0.104445 0.108904 0)
(-0.147257 0.131189 0)
(-0.184551 0.138176 0)
(-0.212884 0.129485 0)
(-0.232663 0.108732 0)
(-0.245176 0.0797881 0)
(-0.25215 0.0454454 0)
(-0.255268 0.00724699 0)
(-0.255452 -0.0339824 0)
(-0.252476 -0.0770611 0)
(-0.2458 -0.120661 0)
(-0.232611 -0.160796 0)
(-0.208295 -0.18901 0)
(-0.166802 -0.189966 0)
(-0.103439 -0.142875 0)
(-0.0221832 -0.038861 0)
(0.0073803 0.0270939 0)
(-0.00850934 0.0348736 0)
(-0.0351715 0.0766336 0)
(-0.0730809 0.114939 0)
(-0.113246 0.147682 0)
(-0.150502 0.166012 0)
(-0.17936 0.165949 0)
(-0.19888 0.149741 0)
(-0.210621 0.122487 0)
(-0.216565 0.0885328 0)
(-0.219193 0.0508661 0)
(-0.22046 0.0109616 0)
(-0.221362 -0.0307403 0)
(-0.222099 -0.0746941 0)
(-0.222778 -0.121259 0)
(-0.221214 -0.169203 0)
(-0.212319 -0.213038 0)
(-0.188007 -0.238572 0)
(-0.139675 -0.21853 0)
(-0.0628431 -0.11894 0)
(0.00584611 0.0141978 0)
(-0.0082911 0.0570018 0)
(-0.0353355 0.110001 0)
(-0.0718247 0.150479 0)
(-0.107059 0.181164 0)
(-0.136689 0.193856 0)
(-0.157091 0.186462 0)
(-0.168996 0.163301 0)
(-0.174528 0.130522 0)
(-0.176095 0.0928838 0)
(-0.176187 0.0534017 0)
(-0.176298 0.0133198 0)
(-0.177099 -0.0272902 0)
(-0.179136 -0.0695441 0)
(-0.182952 -0.114688 0)
(-0.187911 -0.163819 0)
(-0.190391 -0.215791 0)
(-0.182511 -0.261648 0)
(-0.154268 -0.275173 0)
(-0.0993922 -0.205906 0)
(-0.00890796 -0.0146293 0)
(-0.00613415 0.0775937 0)
(-0.0297873 0.140549 0)
(-0.0614175 0.181211 0)
(-0.0898835 0.208321 0)
(-0.111889 0.214909 0)
(-0.125422 0.200583 0)
(-0.132106 0.171353 0)
(-0.13425 0.134195 0)
(-0.134304 0.0940878 0)
(-0.134197 0.0537369 0)
(-0.1346 0.0138666 0)
(-0.135693 -0.0258661 0)
(-0.137929 -0.0664436 0)
(-0.142001 -0.109049 0)
(-0.148525 -0.155633 0)
(-0.156201 -0.208553 0)
(-0.159067 -0.265887 0)
(-0.146746 -0.308131 0)
(-0.11225 -0.277209 0)
(-0.0309627 -0.075337 0)
(-0.00272911 0.0936095 0)
(-0.0204151 0.165636 0)
(-0.0451468 0.205599 0)
(-0.0663388 0.228586 0)
(-0.0816044 0.229546 0)
(-0.0900914 0.20956 0)
(-0.0937181 0.175809 0)
(-0.094623 0.135776 0)
(-0.0948929 0.0944382 0)
(-0.0956821 0.0540113 0)
(-0.0970281 0.0145938 0)
(-0.0988369 -0.0245616 0)
(-0.101276 -0.0641892 0)
(-0.104849 -0.104943 0)
(-0.110704 -0.148417 0)
(-0.119577 -0.198541 0)
(-0.128341 -0.259783 0)
(-0.126522 -0.323457 0)
(-0.107478 -0.334767 0)
(-0.0373478 -0.163434 0)
(0.00121966 0.102753 0)
(-0.00894123 0.183475 0)
(-0.0256413 0.223151 0)
(-0.039638 0.242767 0)
(-0.0491152 0.239531 0)
(-0.0539851 0.215557 0)
(-0.0559502 0.178802 0)
(-0.0566572 0.137108 0)
(-0.0576124 0.0953619 0)
(-0.0593499 0.0552449 0)
(-0.06164 0.0163064 0)
(-0.0643391 -0.022469 0)
(-0.0674385 -0.0616914 0)
(-0.0711169 -0.101564 0)
(-0.0763069 -0.142759 0)
(-0.0845786 -0.188903 0)
(-0.0960561 -0.248339 0)
(-0.100649 -0.324319 0)
(-0.0951723 -0.372231 0)
(-0.0309226 -0.242579 0)
(0.00511763 0.103918 0)
(0.00295789 0.193073 0)
(-0.00538785 0.233644 0)
(-0.0125031 0.250798 0)
(-0.0168924 0.244711 0)
(-0.0187776 0.218493 0)
(-0.0194631 0.180432 0)
(-0.0199881 0.138359 0)
(-0.0212835 0.0969118 0)
(-0.0235174 0.0573911 0)
(-0.0264048 0.0190747 0)
(-0.029887 -0.0191465 0)
(-0.0339804 -0.0579311 0)
(-0.0386241 -0.0973334 0)
(-0.0443642 -0.137274 0)
(-0.0524291 -0.180142 0)
(-0.0657523 -0.23563 0)
(-0.0742204 -0.318092 0)
(-0.0811986 -0.396734 0)
(-0.0229419 -0.307136 0)
(0.00845535 0.0974449 0)
(0.0142182 0.194065 0)
(0.0141016 0.237166 0)
(0.0137076 0.253578 0)
(0.0143307 0.246496 0)
(0.015528 0.219787 0)
(0.0163881 0.181738 0)
(0.0164424 0.140027 0)
(0.0153045 0.0990971 0)
(0.0130267 0.0601886 0)
(0.00985874 0.0226159 0)
(0.00575158 -0.014734 0)
(0.000562227 -0.0526494 0)
(-0.00556075 -0.0912297 0)
(-0.0130258 -0.130106 0)
(-0.0219726 -0.17028 0)
(-0.0377147 -0.220669 0)
(-0.0487324 -0.304451 0)
(-0.0679056 -0.408478 0)
(-0.0144597 -0.360017 0)
(0.0103254 0.0844695 0)
(0.0234127 0.186471 0)
(0.031075 0.233291 0)
(0.0370035 0.250124 0)
(0.0426641 0.243281 0)
(0.0476175 0.217496 0)
(0.051053 0.180734 0)
(0.0527266 0.140332 0)
(0.0525925 0.100579 0)
(0.0508605 0.0627867 0)
(0.0477492 0.026445 0)
(0.0431419 -0.00950522 0)
(0.0368711 -0.0459584 0)
(0.0290599 -0.0830724 0)
(0.0189107 -0.120481 0)
(0.00758952 -0.158414 0)
(-0.0118219 -0.20438 0)
(-0.0242472 -0.286452 0)
(-0.0558483 -0.410987 0)
(-0.00613893 -0.401868 0)
(0.00987365 0.0672247 0)
(0.0290208 0.170665 0)
(0.0443436 0.222202 0)
(0.0568835 0.241292 0)
(0.0681746 0.236362 0)
(0.077859 0.212999 0)
(0.0850772 0.178708 0)
(0.0895284 0.140371 0)
(0.0912892 0.102219 0)
(0.0906602 0.065797 0)
(0.0879721 0.030967 0)
(0.0829231 -0.00328978 0)
(0.0754116 -0.0375105 0)
(0.0657243 -0.0722727 0)
(0.0524801 -0.107382 0)
(0.0375539 -0.142721 0)
(0.0131191 -0.184211 0)
(6.8135e-05 -0.263215 0)
(-0.044804 -0.40669 0)
(0.00276347 -0.43625 0)
(0.00692649 0.0493942 0)
(0.0293543 0.148949 0)
(0.0510981 0.203617 0)
(0.069973 0.224529 0)
(0.0874457 0.221668 0)
(0.103137 0.20151 0)
(0.115803 0.170917 0)
(0.124763 0.136031 0)
(0.12993 0.100841 0)
(0.131546 0.0670249 0)
(0.129879 0.0348327 0)
(0.124955 0.00343928 0)
(0.116326 -0.0274388 0)
(0.104599 -0.058661 0)
(0.0875132 -0.0902712 0)
(0.0683317 -0.12288 0)
(0.0382769 -0.160802 0)
(0.0238459 -0.237121 0)
(-0.0344476 -0.398942 0)
(0.0134718 -0.464414 0)
(0.00238578 0.0346301 0)
(0.0236319 0.123888 0)
(0.0509429 0.17993 0)
(0.0766701 0.202922 0)
(0.101331 0.202607 0)
(0.12421 0.186205 0)
(0.143659 0.16015 0)
(0.158463 0.129723 0)
(0.168203 0.0985369 0)
(0.173089 0.0682808 0)
(0.17306 0.0395512 0)
(0.168831 0.0119417 0)
(0.158997 -0.0148916 0)
(0.145268 -0.0416833 0)
(0.123973 -0.0687151 0)
(0.100441 -0.09751 0)
(0.0645966 -0.132665 0)
(0.046992 -0.207427 0)
(-0.0227137 -0.387068 0)
(0.0285284 -0.485548 0)
(-0.00342532 0.0286218 0)
(0.0100656 0.101497 0)
(0.0370977 0.148682 0)
(0.0689571 0.169441 0)
(0.101846 0.170658 0)
(0.133561 0.158366 0)
(0.161554 0.137932 0)
(0.184094 0.113532 0)
(0.200138 0.0882497 0)
(0.210057 0.0636153 0)
(0.212979 0.0403737 0)
(0.210723 0.0184065 0)
(0.200461 -0.0026614 0)
(0.185833 -0.023289 0)
(0.161026 -0.0439477 0)
(0.134417 -0.0677056 0)
(0.0928971 -0.101657 0)
(0.0698611 -0.179988 0)
(-0.00437604 -0.370043 0)
(0.052157 -0.491636 0)
(-0.0140063 0.0185253 0)
(-0.00751511 0.088178 0)
(0.0192107 0.124187 0)
(0.0564366 0.137305 0)
(0.0975833 0.136893 0)
(0.137959 0.127709 0)
(0.174205 0.113053 0)
(0.204044 0.095276 0)
(0.225934 0.0768069 0)
(0.241022 0.0586628 0)
(0.247054 0.0417966 0)
(0.247969 0.0261092 0)
(0.238633 0.011753 0)
(0.22682 -0.00203266 0)
(0.201829 -0.0160678 0)
(0.177856 -0.0350022 0)
(0.133521 -0.067781 0)
(0.107823 -0.145989 0)
(0.037465 -0.326118 0)
(0.0923645 -0.455871 0)
(-0.106016 0.0824237 0)
(-0.0777562 0.0689959 0)
(-0.0485684 0.0733672 0)
(0.00377325 0.077882 0)
(0.0572804 0.0782128 0)
(0.110004 0.0739473 0)
(0.157165 0.0666124 0)
(0.19952 0.0572091 0)
(0.231626 0.0475357 0)
(0.259773 0.0378821 0)
(0.275499 0.0292186 0)
(0.290653 0.0212359 0)
(0.291009 0.014482 0)
(0.295124 0.00810117 0)
(0.278831 0.00113554 0)
(0.271626 -0.0100022 0)
(0.232324 -0.0355587 0)
(0.218133 -0.0954152 0)
(0.150207 -0.229723 0)
(0.170672 -0.341457 0)
(0.129971 0.103746 0)
(0.158325 0.075232 0)
(0.212173 0.0532325 0)
(0.270681 0.0416267 0)
(0.323254 0.0359157 0)
(0.375691 0.03195 0)
(0.42028 0.0289171 0)
(0.465593 0.0255813 0)
(0.498684 0.0229034 0)
(0.53393 0.0197112 0)
(0.553367 0.0175489 0)
(0.579176 0.0146114 0)
(0.585316 0.0131672 0)
(0.603659 0.0103487 0)
(0.595084 0.00938663 0)
(0.603591 0.00500257 0)
(0.567789 9.14051e-05 0)
(0.547617 -0.0183147 0)
(0.435698 -0.0504145 0)
(0.336757 -0.101386 0)
)
;

boundaryField
{
    movingWall
    {
        type            fixedValue;
        value           uniform (1 0 0);
    }
    fixedWalls
    {
        type            noSlip;
    }
    frontAndBack
    {
        type            empty;
    }
}


// ************************************************************************* //
