/*--------------------------------*- C++ -*----------------------------------*\
| =========                 |                                                 |
| \\      /  F ield         | OpenFOAM: The Open Source CFD Toolbox           |
|  \\    /   O peration     | Version:  2212                                  |
|   \\  /    A nd           | Website:  www.openfoam.com                      |
|    \\/     M anipulation  |                                                 |
\*---------------------------------------------------------------------------*/
FoamFile
{
    version     2.0;
    format      ascii;
    arch        "LSB;label=32;scalar=64";
    class       volScalarField;
    location    "8.9";
    object      p;
}
// * * * * * * * * * * * * * * * * * * * * * * * * * * * * * * * * * * * * * //

dimensions      [0 2 -2 0 0 0 0];

internalField   nonuniform List<scalar> 
400
(
6.26582e-07
-0.000150345
-0.000534396
-0.00107156
-0.00173225
-0.00249367
-0.00318475
-0.00359729
-0.00356506
-0.00293381
-0.00154832
0.000619536
0.00324969
0.00551426
0.00653417
0.00592365
0.00400315
0.0021509
0.00111195
0.0010429
0.000116539
-5.78658e-05
-0.000376786
-0.000763941
-0.00124384
-0.00188792
-0.00270597
-0.0035432
-0.00407963
-0.00393805
-0.00284611
-0.000824627
0.00168957
0.0039612
0.00512522
0.00474394
0.00310415
0.00137599
0.000594405
0.000685468
0.000536623
0.000265179
-7.70852e-05
-0.000559417
-0.00134707
-0.00258034
-0.00421873
-0.00598319
-0.00740182
-0.00794307
-0.00726344
-0.00546134
-0.00289109
-0.000194097
0.00179244
0.00242869
0.00171001
0.000503403
-0.000394811
-0.000391552
0.00115206
0.000741401
0.000192069
-0.000774575
-0.00245079
-0.00493728
-0.00799427
-0.0111192
-0.0137018
-0.0151752
-0.015205
-0.0138382
-0.0112921
-0.00802781
-0.00475112
-0.00220864
-0.000869279
-0.000705088
-0.0012877
-0.00191705
0.0015833
0.000973767
-2.27279e-05
-0.00192378
-0.00500604
-0.00917896
-0.013912
-0.0184774
-0.0222132
-0.0246495
-0.0255251
-0.0247195
-0.0223604
-0.0187409
-0.0143025
-0.00965397
-0.0055907
-0.0029477
-0.00219218
-0.00401679
0.00129325
0.000445013
-0.00119716
-0.00430383
-0.00900386
-0.0148786
-0.0210698
-0.0267114
-0.0311865
-0.0341733
-0.0355399
-0.0351841
-0.0331919
-0.0297143
-0.0248958
-0.0189581
-0.0125032
-0.00694686
-0.00439969
-0.00652284
-4.84106e-05
-0.00114751
-0.00349909
-0.00779585
-0.0139306
-0.0211113
-0.0282319
-0.0344022
-0.0391221
-0.0422247
-0.0437121
-0.0436029
-0.0419656
-0.0388725
-0.0343056
-0.028153
-0.0205359
-0.0127007
-0.00785332
-0.00774675
-0.00245041
-0.00374193
-0.00669788
-0.0119118
-0.0190371
-0.0269776
-0.0344984
-0.040772
-0.0454423
-0.0484675
-0.0499298
-0.0499212
-0.0485211
-0.0457801
-0.0416553
-0.0359211
-0.0283214
-0.0193681
-0.0118204
-0.00797934
-0.00553727
-0.00691463
-0.0102625
-0.0160197
-0.0236545
-0.0318842
-0.0394442
-0.0456042
-0.0501272
-0.0530461
-0.0544747
-0.0545149
-0.0532413
-0.0507156
-0.0469534
-0.041805
-0.0348624
-0.0259438
-0.0167066
-0.00999292
-0.00873303
-0.0100849
-0.013596
-0.0195394
-0.027282
-0.0354809
-0.0429039
-0.0488997
-0.0532977
-0.0561544
-0.0575777
-0.0576489
-0.0564312
-0.0539994
-0.0504411
-0.0457523
-0.0396277
-0.0315193
-0.0223179
-0.0143374
-0.0115031
-0.0127566
-0.0162173
-0.022051
-0.0296021
-0.0375817
-0.0448175
-0.0506883
-0.05503
-0.05788
-0.0593216
-0.0594132
-0.0582047
-0.0557761
-0.0522759
-0.0478435
-0.0424242
-0.0353774
-0.027194
-0.0191762
-0.0135481
-0.0146172
-0.0178536
-0.0233119
-0.0304257
-0.0380556
-0.0451085
-0.0509384
-0.0553159
-0.0582259
-0.0597128
-0.0598152
-0.0585739
-0.05607
-0.0525044
-0.0481291
-0.0431999
-0.037051
-0.0300278
-0.0224138
-0.0148361
-0.0155663
-0.0183496
-0.0232068
-0.0296882
-0.0368718
-0.0437556
-0.0496291
-0.054142
-0.0571868
-0.0587551
-0.0588622
-0.0575437
-0.0549032
-0.0511665
-0.0466474
-0.0419591
-0.0362954
-0.0302224
-0.0228927
-0.0154664
-0.0157206
-0.0177752
-0.0217432
-0.0273851
-0.0340252
-0.0407422
-0.0467304
-0.051481
-0.054755
-0.0564682
-0.0566093
-0.0551885
-0.0523414
-0.0483366
-0.0435745
-0.0387255
-0.0331379
-0.0280968
-0.0202769
-0.0155731
-0.0152969
-0.0163363
-0.0190853
-0.0236494
-0.0296289
-0.0361646
-0.042327
-0.0474172
-0.0510278
-0.0529678
-0.0531712
-0.0516795
-0.0485815
-0.0442189
-0.0390483
-0.0337784
-0.0280697
-0.0242301
-0.0143841
-0.0152756
-0.014549
-0.0142595
-0.0154243
-0.0186823
-0.0238908
-0.030226
-0.0366077
-0.0421292
-0.0461914
-0.0484789
-0.048856
-0.0473436
-0.0440129
-0.039243
-0.0335153
-0.0276398
-0.0216293
-0.0180542
-0.00383382
-0.014661
-0.0136173
-0.0117061
-0.0110803
-0.0129524
-0.0173781
-0.0235304
-0.0301652
-0.0361866
-0.0408036
-0.0435701
-0.0442532
-0.0428429
-0.0393703
-0.0341813
-0.0276881
-0.0206828
-0.0132783
-0.0067888
0.0160503
-0.0145825
-0.0126566
-0.00864826
-0.00623474
-0.00691003
-0.010745
-0.0168159
-0.0237365
-0.0302937
-0.0355331
-0.0388968
-0.0400283
-0.0388715
-0.0354434
-0.0298933
-0.0222757
-0.0128748
-0.000692173
0.0166902
0.0570599
-0.0117942
-0.0118304
-0.00572644
-0.0017759
-0.00176587
-0.005405
-0.0115743
-0.0188126
-0.0258718
-0.0316825
-0.0356566
-0.0373561
-0.0366801
-0.0333515
-0.0272224
-0.0175422
-0.00315132
0.0204853
0.0606989
0.129817
-0.0295163
-0.0106296
-0.000609535
0.00307959
0.00244699
-0.00155771
-0.00799907
-0.0155516
-0.0229729
-0.0291693
-0.0335266
-0.0355825
-0.0351962
-0.0319521
-0.0252258
-0.0128604
0.00941982
0.051167
0.122873
0.226072
)
;

boundaryField
{
    movingWall
    {
        type            zeroGradient;
    }
    fixedWalls
    {
        type            zeroGradient;
    }
    frontAndBack
    {
        type            empty;
    }
}


// ************************************************************************* //
