/*--------------------------------*- C++ -*----------------------------------*\
| =========                 |                                                 |
| \\      /  F ield         | OpenFOAM: The Open Source CFD Toolbox           |
|  \\    /   O peration     | Version:  2212                                  |
|   \\  /    A nd           | Website:  www.openfoam.com                      |
|    \\/     M anipulation  |                                                 |
\*---------------------------------------------------------------------------*/
FoamFile
{
    version     2.0;
    format      ascii;
    arch        "LSB;label=32;scalar=64";
    class       surfaceScalarField;
    location    "8.9";
    object      phi;
}
// * * * * * * * * * * * * * * * * * * * * * * * * * * * * * * * * * * * * * //

dimensions      [0 3 -1 0 0 0 0];

oriented        oriented;

internalField   nonuniform List<scalar> 
760
(
1.56059e-07
-1.56116e-07
2.93588e-07
-1.37529e-07
3.09944e-07
-1.63556e-08
1.83635e-07
1.26309e-07
-1.20342e-07
3.03977e-07
-6.65933e-07
5.45591e-07
-1.48522e-06
8.19291e-07
-2.49075e-06
1.00553e-06
-3.48019e-06
9.89437e-07
-4.22017e-06
7.39982e-07
-4.54382e-06
3.23649e-07
-4.35356e-06
-1.90262e-07
-3.59375e-06
-7.59807e-07
-2.37907e-06
-1.21468e-06
-9.40171e-07
-1.4389e-06
3.47565e-07
-1.28774e-06
1.08979e-06
-7.4222e-07
1.033e-06
5.67912e-08
4.60967e-07
5.7203e-07
4.60969e-07
1.25014e-07
-2.8113e-07
7.45496e-08
-8.7064e-08
-2.97081e-07
3.55276e-07
-1.07893e-06
9.08155e-07
-2.31589e-06
1.54094e-06
-3.92726e-06
2.15696e-06
-5.66206e-06
2.55409e-06
-7.20672e-06
2.55019e-06
-8.33658e-06
2.1193e-06
-8.94193e-06
1.34533e-06
-8.97589e-06
3.57606e-07
-8.41595e-06
-7.502e-07
-7.29346e-06
-1.88229e-06
-5.64197e-06
-2.86618e-06
-3.60585e-06
-3.47502e-06
-1.49034e-06
-3.40325e-06
1.78589e-07
-2.41115e-06
8.58887e-07
-6.2351e-07
5.25669e-07
9.05245e-07
9.86639e-07
-1.27627e-07
-1.53504e-07
-6.3396e-07
4.19269e-07
-1.62492e-06
1.34624e-06
-3.14139e-06
2.42462e-06
-5.05732e-06
3.45687e-06
-7.07305e-06
4.17269e-06
-8.87304e-06
4.35408e-06
-1.02772e-05
3.95437e-06
-1.1234e-05
3.07604e-06
-1.17355e-05
1.84687e-06
-1.17296e-05
3.5168e-07
-1.12707e-05
-1.20907e-06
-1.03381e-05
-2.81492e-06
-8.87754e-06
-4.32672e-06
-6.86939e-06
-5.48316e-06
-4.40315e-06
-5.86949e-06
-1.87876e-06
-4.93553e-06
-8.64507e-08
-2.41582e-06
2.9467e-07
5.24122e-07
1.28131e-06
-5.00526e-07
3.47023e-07
-1.55996e-06
1.4787e-06
-3.11939e-06
2.90567e-06
-5.08118e-06
4.3864e-06
-7.18494e-06
5.56063e-06
-9.12282e-06
6.11058e-06
-1.06926e-05
5.92384e-06
-1.18517e-05
5.1135e-06
-1.26283e-05
3.85261e-06
-1.30569e-05
2.27549e-06
-1.3122e-05
4.16746e-07
-1.28825e-05
-1.44853e-06
-1.22998e-05
-3.39766e-06
-1.1272e-05
-5.35453e-06
-9.66837e-06
-7.08674e-06
-7.36438e-06
-8.17349e-06
-4.39865e-06
-7.90127e-06
-1.37807e-06
-5.4364e-06
1.20713e-07
-9.74659e-07
1.40202e-06
-8.61917e-07
1.20894e-06
-2.36162e-06
2.97841e-06
-4.23261e-06
4.77666e-06
-6.27985e-06
6.43365e-06
-8.22215e-06
7.50293e-06
-9.8368e-06
7.72522e-06
-1.10471e-05
7.13416e-06
-1.18797e-05
5.94605e-06
-1.23962e-05
4.36915e-06
-1.26694e-05
2.54866e-06
-1.279e-05
5.3733e-07
-1.27444e-05
-1.49414e-06
-1.25238e-05
-3.61825e-06
-1.20493e-05
-5.82901e-06
-1.11347e-05
-8.00133e-06
-9.49208e-06
-9.81611e-06
-6.82197e-06
-1.05714e-05
-3.22291e-06
-9.03546e-06
-2.61186e-07
-3.93638e-06
1.14084e-06
-1.08704e-06
2.29598e-06
-2.78449e-06
4.67586e-06
-4.6782e-06
6.67036e-06
-6.53616e-06
8.29162e-06
-8.13406e-06
9.10083e-06
-9.34088e-06
8.93204e-06
-1.01526e-05
7.9459e-06
-1.06344e-05
6.42782e-06
-1.08764e-05
4.61117e-06
-1.09783e-05
2.65058e-06
-1.10615e-05
6.20517e-07
-1.11121e-05
-1.44355e-06
-1.11463e-05
-3.58403e-06
-1.11353e-05
-5.84005e-06
-1.09257e-05
-8.21092e-06
-1.01906e-05
-1.05512e-05
-8.43567e-06
-1.23263e-05
-5.24481e-06
-1.22263e-05
-1.15864e-06
-8.02255e-06
-1.78017e-08
-1.11114e-06
3.40712e-06
-2.75915e-06
6.32387e-06
-4.45704e-06
8.36825e-06
-5.99299e-06
9.82757e-06
-7.20692e-06
1.03148e-05
-8.0365e-06
9.76162e-06
-8.5195e-06
8.4289e-06
-8.74289e-06
6.65122e-06
-8.81015e-06
4.67843e-06
-8.81799e-06
2.65842e-06
-8.84851e-06
6.51036e-07
-8.91989e-06
-1.37217e-06
-9.05209e-06
-3.45184e-06
-9.25676e-06
-5.63537e-06
-9.47791e-06
-7.98978e-06
-9.48474e-06
-1.05444e-05
-8.75857e-06
-1.30525e-05
-6.54092e-06
-1.4444e-05
-2.42483e-06
-1.21386e-05
-2.44264e-06
-9.36524e-07
4.34365e-06
-2.34877e-06
7.73611e-06
-3.73662e-06
9.7561e-06
-4.91657e-06
1.10075e-05
-5.78769e-06
1.11859e-05
-6.33318e-06
1.03071e-05
-6.61024e-06
8.70596e-06
-6.70985e-06
6.75083e-06
-6.72786e-06
4.69644e-06
-6.73698e-06
2.66754e-06
-6.77256e-06
6.86615e-07
-6.85139e-06
-1.29334e-06
-6.99438e-06
-3.30884e-06
-7.2322e-06
-5.39756e-06
-7.58242e-06
-7.63956e-06
-7.95502e-06
-1.01718e-05
-7.94094e-06
-1.30666e-05
-6.72222e-06
-1.56627e-05
-3.58963e-06
-1.52712e-05
-6.03226e-06
-6.25976e-07
4.96962e-06
-1.68956e-06
8.79969e-06
-2.72372e-06
1.07903e-05
-3.56383e-06
1.18476e-05
-4.15441e-06
1.17765e-05
-4.50563e-06
1.06583e-05
-4.67643e-06
8.87675e-06
-4.74512e-06
6.81953e-06
-4.78383e-06
4.73515e-06
-4.83577e-06
2.71948e-06
-4.91075e-06
7.61602e-07
-5.01496e-06
-1.18914e-06
-5.15814e-06
-3.16566e-06
-5.36881e-06
-5.18688e-06
-5.70216e-06
-7.30621e-06
-6.17235e-06
-9.70159e-06
-6.56263e-06
-1.26763e-05
-6.13265e-06
-1.60927e-05
-3.9269e-06
-1.7477e-05
-9.95917e-06
-2.33224e-07
5.20285e-06
-8.94903e-07
9.46137e-06
-1.56739e-06
1.14627e-05
-2.09787e-06
1.23781e-05
-2.45869e-06
1.21373e-05
-2.67416e-06
1.08738e-05
-2.79246e-06
8.99506e-06
-2.86681e-06
6.89388e-06
-2.94166e-06
4.81e-06
-3.03883e-06
2.81665e-06
-3.16102e-06
8.83793e-07
-3.30771e-06
-1.04244e-06
-3.47894e-06
-2.99443e-06
-3.68676e-06
-4.97907e-06
-3.9815e-06
-7.01146e-06
-4.44562e-06
-9.23746e-06
-5.02776e-06
-1.20941e-05
-5.12717e-06
-1.59932e-05
-3.56063e-06
-1.90435e-05
-1.35198e-05
1.63761e-07
5.03909e-06
-7.04239e-08
9.69556e-06
-4.03861e-07
1.17962e-05
-6.55362e-07
1.26296e-05
-8.10858e-07
1.22928e-05
-9.01488e-07
1.09644e-05
-9.66613e-07
9.06018e-06
-1.03808e-06
6.96535e-06
-1.13244e-06
4.90436e-06
-1.25744e-06
2.94165e-06
-1.41566e-06
1.04201e-06
-1.60923e-06
-8.48875e-07
-1.83656e-06
-2.7671e-06
-2.09528e-06
-4.72034e-06
-2.41258e-06
-6.69417e-06
-2.87983e-06
-8.77021e-06
-3.56258e-06
-1.14114e-05
-4.02706e-06
-1.55288e-05
-3.02681e-06
-2.00438e-05
-1.65466e-05
5.02432e-07
4.53665e-06
7.00661e-07
9.49733e-06
7.44058e-07
1.17528e-05
7.79809e-07
1.25939e-05
8.24775e-07
1.22478e-05
8.53651e-07
1.09356e-05
8.46801e-07
9.06703e-06
7.96037e-07
7.01612e-06
7.02165e-07
4.99823e-06
5.66879e-07
3.07693e-06
3.8495e-07
1.22394e-06
1.50187e-07
-6.14111e-07
-1.38953e-07
-2.47796e-06
-4.89112e-07
-4.37018e-06
-9.0382e-07
-6.27946e-06
-1.42646e-06
-8.24757e-06
-2.20453e-06
-1.06333e-05
-2.95404e-06
-1.47793e-05
-2.46098e-06
-2.05368e-05
-1.90076e-05
7.5969e-07
3.77696e-06
1.35943e-06
8.89759e-06
1.75387e-06
1.13583e-05
2.08491e-06
1.22628e-05
2.35942e-06
1.19733e-05
2.54729e-06
1.07477e-05
2.64045e-06
8.97387e-06
2.6496e-06
7.00697e-06
2.5887e-06
5.05914e-06
2.46408e-06
3.20156e-06
2.26809e-06
1.41993e-06
1.98665e-06
-3.32666e-07
1.62042e-06
-2.11173e-06
1.16452e-06
-3.91428e-06
6.14722e-07
-5.72966e-06
-8.00732e-08
-7.55277e-06
-9.53824e-07
-9.75957e-06
-1.91696e-06
-1.38161e-05
-1.92421e-06
-2.05296e-05
-2.09318e-05
8.75421e-07
2.90154e-06
1.81881e-06
7.9542e-06
2.5638e-06
1.06134e-05
3.20782e-06
1.16188e-05
3.75835e-06
1.14228e-05
4.17219e-06
1.03338e-05
4.43355e-06
8.71252e-06
4.55635e-06
6.88417e-06
4.56341e-06
5.05208e-06
4.46968e-06
3.29528e-06
4.27294e-06
1.61667e-06
3.94053e-06
-2.59759e-10
3.49326e-06
-1.66445e-06
2.90548e-06
-3.3265e-06
2.17849e-06
-5.00267e-06
1.33146e-06
-6.70574e-06
2.74081e-07
-8.70219e-06
-9.53354e-07
-1.25887e-05
-1.42498e-06
-2.0058e-05
-2.23568e-05
8.11301e-07
2.09024e-06
1.96475e-06
6.80076e-06
3.01229e-06
9.56581e-06
3.99025e-06
1.06409e-05
4.87173e-06
1.05413e-05
5.59073e-06
9.61483e-06
6.10817e-06
8.19509e-06
6.42696e-06
6.56537e-06
6.56783e-06
4.91121e-06
6.54858e-06
3.31454e-06
6.36733e-06
1.79792e-06
6.02138e-06
3.45686e-07
5.47767e-06
-1.12074e-06
4.74372e-06
-2.59255e-06
3.81172e-06
-4.07067e-06
2.71073e-06
-5.60475e-06
1.40136e-06
-7.39283e-06
-1.49107e-07
-1.10382e-05
-9.09172e-07
-1.92979e-05
-2.32659e-05
5.81354e-07
1.50889e-06
1.77e-06
5.61211e-06
3.11501e-06
8.2208e-06
4.47256e-06
9.28331e-06
5.74516e-06
9.26869e-06
6.83419e-06
8.5258e-06
7.67424e-06
7.35503e-06
8.25262e-06
5.98699e-06
8.58156e-06
4.58227e-06
8.67764e-06
3.21846e-06
8.54747e-06
1.9281e-06
8.18813e-06
7.05025e-07
7.55549e-06
-4.88094e-07
6.66701e-06
-1.70407e-06
5.51007e-06
-2.91373e-06
4.12573e-06
-4.22041e-06
2.58804e-06
-5.85513e-06
9.68748e-07
-9.41893e-06
-1.39071e-07
-1.81901e-05
-2.3405e-05
1.54276e-07
1.35461e-06
1.04847e-06
4.71792e-06
2.53312e-06
6.73614e-06
4.26305e-06
7.55339e-06
5.99287e-06
7.53886e-06
7.53484e-06
6.98383e-06
8.78625e-06
6.10362e-06
9.71727e-06
5.05598e-06
1.03229e-05
3.97664e-06
1.06144e-05
2.92691e-06
1.05978e-05
1.94473e-06
1.02785e-05
1.02435e-06
9.61013e-06
1.80276e-07
8.61531e-06
-7.09256e-07
7.28381e-06
-1.58223e-06
5.66784e-06
-2.60444e-06
3.92862e-06
-4.11591e-06
2.25042e-06
-7.74074e-06
6.56822e-07
-1.65965e-05
-2.27482e-05
-5.19105e-07
1.87372e-06
2.03656e-07
3.99516e-06
1.76764e-06
5.17216e-06
3.841e-06
5.48002e-06
6.00652e-06
5.37334e-06
7.97717e-06
5.01318e-06
9.61631e-06
4.46448e-06
1.08823e-05
3.78995e-06
1.17577e-05
3.10128e-06
1.22585e-05
2.42613e-06
1.23881e-05
1.81513e-06
1.21662e-05
1.24622e-06
1.16171e-05
7.29386e-07
1.0711e-05
1.96834e-07
9.45268e-06
-3.23921e-07
7.91592e-06
-1.06768e-06
6.2866e-06
-2.48659e-06
4.46657e-06
-5.92071e-06
2.05966e-06
-1.41896e-05
-2.06885e-05
-4.18152e-06
6.05524e-06
-3.64411e-06
3.45775e-06
-1.24388e-06
2.77193e-06
1.56242e-06
2.67373e-06
4.31081e-06
2.62495e-06
6.85423e-06
2.46976e-06
9.07898e-06
2.23973e-06
1.09246e-05
1.94437e-06
1.23723e-05
1.65349e-06
1.34493e-05
1.34921e-06
1.41723e-05
1.09208e-06
1.45863e-05
8.3227e-07
1.46787e-05
6.36958e-07
1.44585e-05
4.16987e-07
1.39219e-05
2.12762e-07
1.30845e-05
-2.3034e-07
1.19344e-05
-1.33649e-06
1.01166e-05
-4.10289e-06
5.63955e-06
-9.71251e-06
-1.5049e-05
6.05524e-06
9.51298e-06
1.22849e-05
1.49586e-05
1.75836e-05
2.00534e-05
2.22931e-05
2.42375e-05
2.58909e-05
2.72402e-05
2.83322e-05
2.91645e-05
2.98015e-05
3.02184e-05
3.04312e-05
3.02009e-05
2.88644e-05
2.47615e-05
1.5049e-05
)
;

boundaryField
{
    movingWall
    {
        type            calculated;
        value           uniform 0;
    }
    fixedWalls
    {
        type            calculated;
        value           uniform 0;
    }
    frontAndBack
    {
        type            empty;
        value           nonuniform List<scalar> 0();
    }
}


// ************************************************************************* //
