/*--------------------------------*- C++ -*----------------------------------*\
| =========                 |                                                 |
| \\      /  F ield         | OpenFOAM: The Open Source CFD Toolbox           |
|  \\    /   O peration     | Version:  2212                                  |
|   \\  /    A nd           | Website:  www.openfoam.com                      |
|    \\/     M anipulation  |                                                 |
\*---------------------------------------------------------------------------*/
FoamFile
{
    version     2.0;
    format      ascii;
    arch        "LSB;label=32;scalar=64";
    class       volScalarField;
    location    "17";
    object      T;
}
// * * * * * * * * * * * * * * * * * * * * * * * * * * * * * * * * * * * * * //

dimensions      [0 0 0 1 0 0 0];

internalField   nonuniform List<scalar> 
400
(
0.973797
0.974346
0.975459
0.977107
0.979033
0.980795
0.982063
0.982806
0.98321
0.983485
0.983736
0.983996
0.984275
0.984564
0.984818
0.984966
0.98489
0.984466
0.983765
0.98319
0.974497
0.97517
0.976519
0.97845
0.980499
0.982015
0.982761
0.983024
0.983113
0.98318
0.983319
0.983586
0.983999
0.984535
0.985087
0.985491
0.985495
0.98491
0.983985
0.983321
0.97559
0.976496
0.978175
0.9802
0.981798
0.982475
0.982447
0.982114
0.9817
0.981386
0.981332
0.981649
0.98234
0.983385
0.984595
0.985695
0.986225
0.985726
0.984391
0.983564
0.976661
0.977807
0.97964
0.981281
0.981978
0.981656
0.980743
0.979581
0.978435
0.977588
0.977257
0.977624
0.978643
0.980337
0.982473
0.984721
0.986467
0.986908
0.985431
0.984131
0.977484
0.978767
0.980455
0.981362
0.980988
0.979582
0.977619
0.975457
0.973481
0.972039
0.971388
0.971741
0.973039
0.97533
0.978405
0.981933
0.985295
0.987539
0.987298
0.985182
0.978023
0.979298
0.980596
0.980602
0.979116
0.976591
0.973531
0.97039
0.96765
0.965684
0.964751
0.96502
0.966488
0.969179
0.972957
0.977539
0.982379
0.986585
0.988681
0.986718
0.978319
0.979453
0.98022
0.979311
0.976786
0.973224
0.969187
0.965243
0.961932
0.959617
0.958513
0.958709
0.960231
0.963089
0.967233
0.972487
0.978411
0.984177
0.988462
0.988922
0.97844
0.979369
0.979604
0.977892
0.974472
0.970025
0.965204
0.960679
0.957009
0.954518
0.953348
0.953514
0.95502
0.957865
0.962059
0.967585
0.974204
0.981171
0.987113
0.990101
0.978441
0.979151
0.978919
0.976565
0.972453
0.967345
0.961976
0.957078
0.953202
0.950628
0.94943
0.949584
0.951059
0.953822
0.957881
0.963333
0.970242
0.978113
0.985385
0.989563
0.978369
0.978899
0.978348
0.975593
0.971034
0.965489
0.95976
0.954621
0.950611
0.947966
0.94672
0.946839
0.948279
0.950972
0.954864
0.960053
0.966868
0.975284
0.98382
0.989155
0.978248
0.978654
0.977926
0.974979
0.970206
0.964461
0.958582
0.953341
0.949251
0.946525
0.945189
0.945221
0.946586
0.949203
0.952947
0.957818
0.964269
0.972834
0.982367
0.988894
0.978092
0.978443
0.977711
0.974834
0.97012
0.964417
0.958568
0.953324
0.949183
0.946359
0.944898
0.944791
0.946015
0.948492
0.952056
0.956585
0.962504
0.970897
0.981202
0.988752
0.9779
0.978252
0.977629
0.97501
0.970585
0.965152
0.959536
0.954447
0.95036
0.9475
0.94593
0.945657
0.94667
0.948899
0.952177
0.956309
0.961579
0.96948
0.980284
0.988736
0.977658
0.978069
0.977675
0.975521
0.971647
0.966743
0.961575
0.956803
0.952878
0.950036
0.948372
0.94789
0.94861
0.950463
0.953304
0.956911
0.961447
0.968657
0.979691
0.988823
0.977342
0.977841
0.977672
0.976027
0.97284
0.968665
0.964176
0.959953
0.956398
0.953737
0.952081
0.951429
0.951814
0.953183
0.955423
0.958383
0.962137
0.96842
0.979383
0.989015
0.976968
0.977577
0.977702
0.976652
0.974301
0.971043
0.967426
0.963932
0.960902
0.958538
0.956948
0.956148
0.956149
0.956939
0.958449
0.960608
0.963512
0.968677
0.979375
0.989318
0.976594
0.977195
0.977415
0.976796
0.975215
0.972931
0.970325
0.96775
0.965454
0.963594
0.962238
0.961426
0.961132
0.961387
0.962188
0.963524
0.965664
0.969846
0.98
0.989834
0.976331
0.977062
0.977506
0.977253
0.97636
0.974981
0.973339
0.971648
0.970066
0.96871
0.967622
0.966853
0.966398
0.966285
0.966586
0.967274
0.968846
0.97206
0.981169
0.990483
0.972758
0.976262
0.976247
0.976118
0.975636
0.974996
0.974267
0.973589
0.972966
0.972506
0.972169
0.972016
0.972024
0.97218
0.972607
0.973153
0.974553
0.976993
0.983899
0.991596
0.980867
0.983179
0.984416
0.985157
0.985552
0.985799
0.985927
0.986058
0.986151
0.986296
0.986425
0.98662
0.986802
0.98705
0.987289
0.98762
0.988045
0.98894
0.990727
0.993872
)
;

boundaryField
{
    movingWall
    {
        type            fixedValue;
        value           uniform 1;
    }
    fixedWalls
    {
        type            zeroGradient;
    }
    frontAndBack
    {
        type            empty;
    }
}


// ************************************************************************* //
