/*--------------------------------*- C++ -*----------------------------------*\
| =========                 |                                                 |
| \\      /  F ield         | OpenFOAM: The Open Source CFD Toolbox           |
|  \\    /   O peration     | Version:  2212                                  |
|   \\  /    A nd           | Website:  www.openfoam.com                      |
|    \\/     M anipulation  |                                                 |
\*---------------------------------------------------------------------------*/
FoamFile
{
    version     2.0;
    format      ascii;
    arch        "LSB;label=32;scalar=64";
    class       volScalarField;
    location    "5.9";
    object      p;
}
// * * * * * * * * * * * * * * * * * * * * * * * * * * * * * * * * * * * * * //

dimensions      [0 2 -2 0 0 0 0];

internalField   nonuniform List<scalar> 
400
(
3.48067e-08
-0.000150289
-0.000533458
-0.00106972
-0.00172944
-0.00248968
-0.00317978
-0.00359173
-0.00355929
-0.00292833
-0.00154388
0.000622255
0.00325125
0.00551664
0.00654007
0.00593514
0.00401954
0.00216981
0.00113111
0.00106153
0.000116522
-5.74476e-05
-0.000375656
-0.000762205
-0.0012415
-0.00188463
-0.00270128
-0.00353695
-0.00407223
-0.00393053
-0.00283965
-0.000819902
0.00169304
0.00396535
0.00513271
0.00475663
0.00312216
0.00139566
0.0006142
0.000704359
0.000536316
0.000265501
-7.60961e-05
-0.000557733
-0.00134419
-0.0025753
-0.00421053
-0.00597144
-0.00738719
-0.00792737
-0.00724873
-0.00544854
-0.00288024
-0.000183939
0.00180413
0.0024438
0.00172901
0.000524125
-0.000373877
-0.000371659
0.0011506
0.000740619
0.000192411
-0.000772452
-0.00244541
-0.00492681
-0.00797735
-0.0110956
-0.0136727
-0.0151431
-0.015173
-0.0138083
-0.0112657
-0.00800473
-0.00473018
-0.00218831
-0.000848652
-0.000684129
-0.00126632
-0.00189616
0.00157957
0.00097128
-2.28876e-05
-0.00191965
-0.00499498
-0.00915846
-0.0138807
-0.0184354
-0.0221625
-0.0245933
-0.0254672
-0.0246641
-0.0223104
-0.0186977
-0.0142661
-0.00962364
-0.00556516
-0.00292552
-0.00217157
-0.00399449
0.001288
0.000441669
-0.0011963
-0.00429516
-0.00898357
-0.0148439
-0.0210196
-0.0266466
-0.0311096
-0.0340882
-0.0354517
-0.0350984
-0.0331134
-0.0296459
-0.0248387
-0.0189125
-0.0124681
-0.00692033
-0.00437742
-0.00649815
-5.32187e-05
-0.00114966
-0.00349477
-0.00777985
-0.0138982
-0.0210597
-0.0281605
-0.0343123
-0.0390166
-0.0421083
-0.0435912
-0.0434842
-0.0418554
-0.0387753
-0.0342241
-0.028088
-0.0204868
-0.0126657
-0.00782741
-0.00772424
-0.00245217
-0.00374035
-0.00668765
-0.0118864
-0.0189911
-0.0269084
-0.0344054
-0.0406566
-0.0453078
-0.0483191
-0.0497747
-0.0497678
-0.0483773
-0.0456524
-0.0415477
-0.0358346
-0.0282553
-0.0193209
-0.011789
-0.00795805
-0.0055338
-0.00690735
-0.0102449
-0.0159842
-0.0235951
-0.0317982
-0.0393312
-0.0454652
-0.0499655
-0.0528675
-0.0542874
-0.0543285
-0.0530656
-0.0505585
-0.0468202
-0.0416974
-0.034779
-0.0258826
-0.0166654
-0.00996587
-0.00872363
-0.0100715
-0.0135711
-0.0194946
-0.0272112
-0.035381
-0.0427744
-0.0487414
-0.0531141
-0.0559515
-0.0573644
-0.0574361
-0.0562297
-0.0538184
-0.0502868
-0.0456272
-0.0395299
-0.0314455
-0.0222648
-0.0142987
-0.0114887
-0.0127381
-0.0161866
-0.0219999
-0.0295237
-0.0374729
-0.0446774
-0.0505178
-0.0548325
-0.0576619
-0.0590923
-0.059184
-0.0579871
-0.0555803
-0.0521088
-0.0477078
-0.0423181
-0.0352962
-0.0271327
-0.0191271
-0.0135309
-0.0145957
-0.0178202
-0.0232583
-0.030345
-0.0379443
-0.0449655
-0.0507644
-0.0551145
-0.0580035
-0.059479
-0.0595815
-0.0583522
-0.0558709
-0.0523351
-0.0479926
-0.0430942
-0.0369705
-0.0299653
-0.0223609
-0.014818
-0.0155446
-0.0183168
-0.0231552
-0.0296112
-0.0367653
-0.0436181
-0.0494613
-0.0539472
-0.0569713
-0.0585284
-0.0586359
-0.0573297
-0.0547123
-0.0510059
-0.0465206
-0.0418636
-0.0362247
-0.030167
-0.0228449
-0.0154489
-0.0157008
-0.0177465
-0.0216983
-0.0273176
-0.0339307
-0.0406185
-0.0465777
-0.0513023
-0.0545565
-0.056259
-0.0564007
-0.0549926
-0.0521688
-0.0481948
-0.0434668
-0.0386499
-0.0330861
-0.0280555
-0.0202436
-0.0155568
-0.0152802
-0.0163141
-0.019051
-0.0235966
-0.0295524
-0.0360613
-0.0421965
-0.047262
-0.0508537
-0.0527837
-0.0529881
-0.0515091
-0.0484348
-0.0441035
-0.0389674
-0.0337296
-0.0280441
-0.0242105
-0.0143736
-0.0152614
-0.014536
-0.0142448
-0.0154029
-0.0186477
-0.0238366
-0.0301479
-0.0365041
-0.0420021
-0.0460461
-0.048324
-0.0487023
-0.0472026
-0.0438958
-0.0391576
-0.0334648
-0.027621
-0.0216327
-0.0180679
-0.00385062
-0.0146496
-0.013608
-0.0116993
-0.0110729
-0.0129373
-0.0173477
-0.0234788
-0.0300898
-0.0360884
-0.0406876
-0.0434444
-0.044128
-0.0427298
-0.0392811
-0.0341239
-0.0276662
-0.0206939
-0.0133137
-0.00683776
0.0160074
-0.0145755
-0.0126514
-0.00864901
-0.00624055
-0.00691308
-0.0107365
-0.0167885
-0.0236866
-0.0302216
-0.0354432
-0.0387967
-0.0399284
-0.0387832
-0.0353767
-0.0298573
-0.022276
-0.0129111
-0.000756172
0.0166137
0.0569968
-0.0117917
-0.0118301
-0.00573571
-0.00179317
-0.00178279
-0.00541252
-0.0115645
-0.018781
-0.0258181
-0.0316105
-0.0355735
-0.0372714
-0.0366045
-0.0332964
-0.0271983
-0.0175548
-0.00320106
0.020407
0.0606126
0.129747
-0.0295118
-0.0106323
-0.000623757
0.0030571
0.00242419
-0.00157169
-0.0079963
-0.0155274
-0.0229265
-0.0291042
-0.0334496
-0.0355029
-0.0351248
-0.0318997
-0.0252014
-0.0128699
0.00937422
0.0510954
0.122797
0.22601
)
;

boundaryField
{
    movingWall
    {
        type            zeroGradient;
    }
    fixedWalls
    {
        type            zeroGradient;
    }
    frontAndBack
    {
        type            empty;
    }
}


// ************************************************************************* //
