/*--------------------------------*- C++ -*----------------------------------*\
| =========                 |                                                 |
| \\      /  F ield         | OpenFOAM: The Open Source CFD Toolbox           |
|  \\    /   O peration     | Version:  2212                                  |
|   \\  /    A nd           | Website:  www.openfoam.com                      |
|    \\/     M anipulation  |                                                 |
\*---------------------------------------------------------------------------*/
FoamFile
{
    version     2.0;
    format      ascii;
    arch        "LSB;label=32;scalar=64";
    class       surfaceScalarField;
    location    "5.9";
    object      phi;
}
// * * * * * * * * * * * * * * * * * * * * * * * * * * * * * * * * * * * * * //

dimensions      [0 3 -1 0 0 0 0];

oriented        oriented;

internalField   nonuniform List<scalar> 
760
(
1.5576e-07
-1.55764e-07
2.92897e-07
-1.37137e-07
3.09074e-07
-1.61771e-08
1.82773e-07
1.26301e-07
-1.20989e-07
3.03762e-07
-6.66021e-07
5.45032e-07
-1.48434e-06
8.18317e-07
-2.48874e-06
1.0044e-06
-3.47733e-06
9.8859e-07
-4.21707e-06
7.39744e-07
-4.54109e-06
3.24019e-07
-4.35192e-06
-1.89173e-07
-3.5936e-06
-7.58315e-07
-2.38049e-06
-1.21311e-06
-9.42863e-07
-1.43763e-06
3.44276e-07
-1.28714e-06
1.08705e-06
-7.42769e-07
1.03147e-06
5.5575e-08
4.60457e-07
5.71014e-07
4.60456e-07
1.24457e-07
-2.80222e-07
7.35256e-08
-8.62056e-08
-2.98039e-07
3.55387e-07
-1.07919e-06
9.07453e-07
-2.31476e-06
1.53933e-06
-3.92424e-06
2.15451e-06
-5.6572e-06
2.55128e-06
-7.20056e-06
2.54776e-06
-8.32983e-06
2.11786e-06
-8.93525e-06
1.34516e-06
-8.96987e-06
3.58635e-07
-8.41111e-06
-7.47929e-07
-7.29027e-06
-1.87915e-06
-5.64065e-06
-2.86273e-06
-3.60633e-06
-3.47195e-06
-1.49213e-06
-3.40135e-06
1.76119e-07
-2.41101e-06
8.57085e-07
-6.25391e-07
5.24984e-07
9.03114e-07
9.8544e-07
-1.28068e-07
-1.52154e-07
-6.34376e-07
4.20102e-07
-1.6245e-06
1.34551e-06
-3.13921e-06
2.42217e-06
-5.0528e-06
3.45293e-06
-7.06622e-06
4.16793e-06
-8.86438e-06
4.34944e-06
-1.02673e-05
3.95066e-06
-1.12232e-05
3.07381e-06
-1.17245e-05
1.84645e-06
-1.17192e-05
3.53282e-07
-1.12612e-05
-1.20588e-06
-1.03301e-05
-2.81031e-06
-8.87145e-06
-4.32134e-06
-6.86555e-06
-5.47785e-06
-4.40156e-06
-5.86534e-06
-1.87894e-06
-4.93363e-06
-8.73749e-08
-2.41696e-06
2.94312e-07
5.21427e-07
1.27975e-06
-5.00359e-07
3.48205e-07
-1.55896e-06
1.47871e-06
-3.11661e-06
2.90315e-06
-5.0759e-06
4.38146e-06
-7.17703e-06
5.55406e-06
-9.11262e-06
6.10352e-06
-1.06806e-05
5.9174e-06
-1.18383e-05
5.10842e-06
-1.2614e-05
3.84943e-06
-1.30421e-05
2.27463e-06
-1.31076e-05
4.18732e-07
-1.28689e-05
-1.44453e-06
-1.22876e-05
-3.39166e-06
-1.12617e-05
-5.34722e-06
-9.66043e-06
-7.07912e-06
-7.35907e-06
-8.1667e-06
-4.39612e-06
-7.89659e-06
-1.378e-06
-5.43508e-06
1.20335e-07
-9.76905e-07
1.40009e-06
-8.6103e-07
1.20924e-06
-2.35898e-06
2.97665e-06
-4.22751e-06
4.77168e-06
-6.272e-06
6.42595e-06
-8.21176e-06
7.49381e-06
-9.82429e-06
7.71605e-06
-1.10329e-05
7.12597e-06
-1.1864e-05
5.93951e-06
-1.23794e-05
4.36489e-06
-1.2652e-05
2.54724e-06
-1.27726e-05
5.39279e-07
-1.27278e-05
-1.48934e-06
-1.25086e-05
-3.6108e-06
-1.20361e-05
-5.81978e-06
-1.11237e-05
-7.99148e-06
-9.48358e-06
-9.80682e-06
-6.81643e-06
-1.05637e-05
-3.22085e-06
-9.03066e-06
-2.61479e-07
-3.93627e-06
1.13861e-06
-1.08546e-06
2.2947e-06
-2.78058e-06
4.67177e-06
-4.67159e-06
6.66269e-06
-6.5269e-06
8.28126e-06
-8.12248e-06
9.08939e-06
-9.32732e-06
8.9209e-06
-1.01373e-05
7.93591e-06
-1.06173e-05
6.41961e-06
-1.08579e-05
4.60546e-06
-1.09589e-05
2.64819e-06
-1.10417e-05
6.22109e-07
-1.10931e-05
-1.43798e-06
-1.11289e-05
-3.57495e-06
-1.11201e-05
-5.82859e-06
-1.09129e-05
-8.19864e-06
-1.01802e-05
-1.05395e-05
-8.42779e-06
-1.23162e-05
-5.24006e-06
-1.22184e-05
-1.15798e-06
-8.01836e-06
-1.93684e-08
-1.10916e-06
3.40385e-06
-2.75463e-06
6.31725e-06
-4.44995e-06
8.358e-06
-5.98349e-06
9.81481e-06
-7.19529e-06
1.03012e-05
-8.0229e-06
9.7485e-06
-8.50387e-06
8.41688e-06
-8.72516e-06
6.6409e-06
-8.7904e-06
4.6707e-06
-8.79669e-06
2.65448e-06
-8.8266e-06
6.52016e-07
-8.89861e-06
-1.36597e-06
-9.0326e-06
-3.44096e-06
-9.23999e-06
-5.62121e-06
-9.4642e-06
-7.97442e-06
-9.47383e-06
-1.05299e-05
-8.74989e-06
-1.30401e-05
-6.5346e-06
-1.44337e-05
-2.42237e-06
-1.21306e-05
-2.44173e-06
-9.34564e-07
4.33842e-06
-2.34442e-06
7.72711e-06
-3.73e-06
9.74359e-06
-4.90786e-06
1.09927e-05
-5.77702e-06
1.11704e-05
-6.32051e-06
1.0292e-05
-6.59535e-06
8.69172e-06
-6.69252e-06
6.73807e-06
-6.70816e-06
4.68635e-06
-6.71541e-06
2.66173e-06
-6.75009e-06
6.86698e-07
-6.82923e-06
-1.28683e-06
-6.97384e-06
-3.29634e-06
-7.21448e-06
-5.38057e-06
-7.5683e-06
-7.62061e-06
-7.94442e-06
-1.01538e-05
-7.93297e-06
-1.30516e-05
-6.71611e-06
-1.56506e-05
-3.58556e-06
-1.52611e-05
-6.02729e-06
-6.24402e-07
4.96282e-06
-1.686e-06
8.78871e-06
-2.71833e-06
1.07759e-05
-3.55672e-06
1.1831e-05
-4.14559e-06
1.17592e-05
-4.49496e-06
1.06414e-05
-4.66364e-06
8.86039e-06
-4.73002e-06
6.80445e-06
-4.7665e-06
4.72283e-06
-4.81669e-06
2.71192e-06
-4.89068e-06
7.60686e-07
-4.99485e-06
-1.18266e-06
-5.13907e-06
-3.15212e-06
-5.35198e-06
-5.16766e-06
-5.68862e-06
-7.28396e-06
-6.16258e-06
-9.67983e-06
-6.55589e-06
-1.26583e-05
-6.12762e-06
-1.60788e-05
-3.92341e-06
-1.74653e-05
-9.9507e-06
-2.32355e-07
5.19517e-06
-8.92649e-07
9.449e-06
-1.56386e-06
1.14471e-05
-2.0931e-06
1.23603e-05
-2.45262e-06
1.21188e-05
-2.66663e-06
1.08554e-05
-2.7833e-06
8.97706e-06
-2.8559e-06
6.87705e-06
-2.92912e-06
4.79605e-06
-3.02499e-06
2.80779e-06
-3.1463e-06
8.81989e-07
-3.29265e-06
-1.0363e-06
-3.4642e-06
-2.98057e-06
-3.67317e-06
-4.9587e-06
-3.97023e-06
-6.9869e-06
-4.43757e-06
-9.21249e-06
-5.02274e-06
-1.20731e-05
-5.12386e-06
-1.59777e-05
-3.55846e-06
-1.90307e-05
-1.35092e-05
1.63694e-07
5.03148e-06
-6.98163e-08
9.68251e-06
-4.02564e-07
1.17799e-05
-6.53392e-07
1.26111e-05
-8.08155e-07
1.22735e-05
-8.97954e-07
1.09452e-05
-9.622e-07
9.0413e-06
-1.03281e-06
6.94766e-06
-1.12639e-06
4.88963e-06
-1.25072e-06
2.93212e-06
-1.4083e-06
1.03957e-06
-1.6013e-06
-8.43309e-07
-1.82826e-06
-2.75361e-06
-2.08703e-06
-4.69993e-06
-2.40511e-06
-6.66881e-06
-2.87441e-06
-8.7432e-06
-3.5596e-06
-1.13879e-05
-4.02545e-06
-1.55119e-05
-3.0258e-06
-2.00304e-05
-1.6535e-05
5.01466e-07
4.53001e-06
6.99484e-07
9.48449e-06
7.42826e-07
1.17365e-05
7.78594e-07
1.25754e-05
8.23652e-07
1.22285e-05
8.52625e-07
1.09162e-05
8.45778e-07
9.04815e-06
7.94878e-07
6.99856e-06
7.00922e-07
4.98359e-06
5.65695e-07
3.06735e-06
3.84116e-07
1.22115e-06
1.49996e-07
-6.09189e-07
-1.38341e-07
-2.46527e-06
-4.87566e-07
-4.3507e-06
-9.01663e-07
-6.25472e-06
-1.42469e-06
-8.22017e-06
-2.20404e-06
-1.06085e-05
-2.9543e-06
-1.47616e-05
-2.46113e-06
-2.05236e-05
-1.89961e-05
7.57833e-07
3.77218e-06
1.35646e-06
8.88587e-06
1.7501e-06
1.13429e-05
2.08043e-06
1.2245e-05
2.35435e-06
1.19545e-05
2.5416e-06
1.0729e-05
2.63397e-06
8.95578e-06
2.64219e-06
6.99035e-06
2.58037e-06
5.0454e-06
2.45524e-06
3.19248e-06
2.25937e-06
1.41702e-06
1.97874e-06
-3.28557e-07
1.61378e-06
-2.10031e-06
1.15946e-06
-3.89638e-06
6.11312e-07
-5.70657e-06
-8.22169e-08
-7.52664e-06
-9.56039e-07
-9.73471e-06
-1.91918e-06
-1.37985e-05
-1.92525e-06
-2.05175e-05
-2.09213e-05
8.73014e-07
2.89917e-06
1.81438e-06
7.94451e-06
2.5578e-06
1.05995e-05
3.20042e-06
1.16024e-05
3.74965e-06
1.14053e-05
4.16217e-06
1.03164e-05
4.42205e-06
8.69589e-06
4.54328e-06
6.86912e-06
4.5489e-06
5.03979e-06
4.4542e-06
3.28718e-06
4.25727e-06
1.61395e-06
3.92575e-06
2.96501e-09
3.47997e-06
-1.65453e-06
2.89433e-06
-3.31075e-06
2.16987e-06
-4.98211e-06
1.32522e-06
-6.68199e-06
2.69595e-07
-8.67909e-06
-9.56972e-07
-1.25719e-05
-1.42668e-06
-2.00478e-05
-2.2348e-05
8.08893e-07
2.09027e-06
1.95949e-06
6.79391e-06
3.00475e-06
9.5542e-06
3.98065e-06
1.06265e-05
4.86017e-06
1.05258e-05
5.57724e-06
9.59937e-06
6.09267e-06
8.18046e-06
6.40944e-06
6.55235e-06
6.5485e-06
4.90073e-06
6.52799e-06
3.30769e-06
6.34636e-06
1.79558e-06
6.00103e-06
3.48289e-07
5.45897e-06
-1.11247e-06
4.72752e-06
-2.57929e-06
3.79866e-06
-4.05325e-06
2.7012e-06
-5.58453e-06
1.39495e-06
-7.37284e-06
-1.52403e-07
-1.10245e-05
-9.11618e-07
-1.92886e-05
-2.32596e-05
5.79535e-07
1.51074e-06
1.76498e-06
5.60846e-06
3.10704e-06
8.21214e-06
4.46175e-06
9.27179e-06
5.73163e-06
9.2559e-06
6.81807e-06
8.51293e-06
7.65562e-06
7.34291e-06
8.23163e-06
5.97635e-06
8.55852e-06
4.57383e-06
8.6532e-06
3.21301e-06
8.52251e-06
1.92627e-06
8.16369e-06
7.07106e-07
7.53278e-06
-4.8156e-07
6.64702e-06
-1.69353e-06
5.49368e-06
-2.89991e-06
4.1137e-06
-4.20455e-06
2.57985e-06
-5.83899e-06
9.6282e-07
-9.40751e-06
-1.41778e-07
-1.8184e-05
-2.34014e-05
1.5325e-07
1.35749e-06
1.0445e-06
4.71721e-06
2.52593e-06
6.73071e-06
4.25247e-06
7.54525e-06
5.97898e-06
7.52939e-06
7.51781e-06
6.9741e-06
8.76627e-06
6.09445e-06
9.69461e-06
5.04801e-06
1.0298e-05
3.97047e-06
1.0588e-05
2.92302e-06
1.05706e-05
1.94364e-06
1.02515e-05
1.02616e-06
9.58526e-06
1.84711e-07
8.59307e-06
-7.01334e-07
7.26548e-06
-1.57232e-06
5.65425e-06
-2.59332e-06
3.91991e-06
-4.10466e-06
2.24539e-06
-7.73299e-06
6.54907e-07
-1.65935e-05
-2.27465e-05
-5.18274e-07
1.87576e-06
2.0237e-07
3.99657e-06
1.76286e-06
5.17022e-06
3.83218e-06
5.47593e-06
5.99356e-06
5.368e-06
7.96034e-06
5.00733e-06
9.59595e-06
4.45884e-06
1.08589e-05
3.78503e-06
1.17318e-05
3.09759e-06
1.22309e-05
2.42389e-06
1.236e-05
1.81457e-06
1.21389e-05
1.24727e-06
1.15913e-05
7.32336e-07
1.06883e-05
2.01683e-07
9.43439e-06
-3.18456e-07
7.90244e-06
-1.06137e-06
6.27824e-06
-2.48045e-06
4.46225e-06
-5.91699e-06
2.05788e-06
-1.41891e-05
-2.06886e-05
-4.18055e-06
6.05631e-06
-3.64326e-06
3.45928e-06
-1.24519e-06
2.77216e-06
1.55786e-06
2.67287e-06
4.30258e-06
2.62328e-06
6.8423e-06
2.46761e-06
9.06362e-06
2.23751e-06
1.09063e-05
1.94236e-06
1.23519e-05
1.65196e-06
1.34276e-05
1.34825e-06
1.41503e-05
1.09183e-06
1.45649e-05
8.3271e-07
1.46591e-05
6.38151e-07
1.44421e-05
4.18623e-07
1.39089e-05
2.14721e-07
1.30752e-05
-2.27662e-07
1.19293e-05
-1.33457e-06
1.01148e-05
-4.10242e-06
5.63882e-06
-9.71317e-06
-1.50498e-05
6.05631e-06
9.51559e-06
1.22877e-05
1.49606e-05
1.75839e-05
2.00515e-05
2.2289e-05
2.42314e-05
2.58834e-05
2.72316e-05
2.83234e-05
2.91561e-05
2.97943e-05
3.02129e-05
3.04276e-05
3.02e-05
2.88654e-05
2.4763e-05
1.50498e-05
)
;

boundaryField
{
    movingWall
    {
        type            calculated;
        value           uniform 0;
    }
    fixedWalls
    {
        type            calculated;
        value           uniform 0;
    }
    frontAndBack
    {
        type            empty;
        value           nonuniform List<scalar> 0();
    }
}


// ************************************************************************* //
