/*--------------------------------*- C++ -*----------------------------------*\
| =========                 |                                                 |
| \\      /  F ield         | OpenFOAM: The Open Source CFD Toolbox           |
|  \\    /   O peration     | Version:  2212                                  |
|   \\  /    A nd           | Website:  www.openfoam.com                      |
|    \\/     M anipulation  |                                                 |
\*---------------------------------------------------------------------------*/
FoamFile
{
    version     2.0;
    format      ascii;
    arch        "LSB;label=32;scalar=64";
    class       volScalarField;
    location    "16.6";
    object      T;
}
// * * * * * * * * * * * * * * * * * * * * * * * * * * * * * * * * * * * * * //

dimensions      [0 0 0 1 0 0 0];

internalField   nonuniform List<scalar> 
400
(
0.971691
0.972285
0.973489
0.975272
0.977356
0.979261
0.980632
0.981435
0.981871
0.982169
0.98244
0.982721
0.983021
0.983333
0.983607
0.983767
0.983684
0.983226
0.982467
0.981846
0.972449
0.973177
0.974635
0.976725
0.978941
0.98058
0.981387
0.981671
0.981767
0.98184
0.98199
0.982278
0.982724
0.983302
0.983898
0.984334
0.984337
0.983705
0.982706
0.981987
0.973631
0.974611
0.976428
0.978619
0.980346
0.981079
0.981049
0.98069
0.980243
0.979905
0.979846
0.980188
0.980934
0.982062
0.983368
0.984555
0.985126
0.984586
0.983144
0.98225
0.97479
0.97603
0.978013
0.979788
0.980542
0.980195
0.97921
0.977957
0.97672
0.975805
0.975448
0.975844
0.976944
0.978772
0.981078
0.983504
0.985389
0.985863
0.984268
0.982863
0.975681
0.977069
0.978895
0.979876
0.979474
0.977957
0.975838
0.973505
0.971372
0.969816
0.969113
0.969494
0.970895
0.973368
0.976687
0.980496
0.984125
0.986546
0.986284
0.983998
0.976265
0.977644
0.979048
0.979057
0.977454
0.974729
0.971426
0.968036
0.965079
0.962957
0.961949
0.96224
0.963824
0.966728
0.970807
0.975752
0.980977
0.985516
0.987779
0.985657
0.976585
0.977812
0.978644
0.977665
0.97494
0.971095
0.966737
0.96248
0.958907
0.956409
0.955217
0.955428
0.957071
0.960156
0.964628
0.970299
0.976694
0.982917
0.987543
0.988039
0.976716
0.977722
0.97798
0.976132
0.972442
0.967642
0.962439
0.957555
0.953594
0.950905
0.949642
0.949821
0.951447
0.954517
0.959044
0.965008
0.972153
0.979672
0.986087
0.989313
0.976719
0.977488
0.977241
0.974701
0.970262
0.96475
0.958955
0.953668
0.949485
0.946707
0.945414
0.94558
0.947172
0.950154
0.954534
0.960419
0.967875
0.976372
0.984222
0.988732
0.976641
0.977216
0.976624
0.973651
0.96873
0.962746
0.956563
0.951017
0.946689
0.943834
0.94249
0.942618
0.944171
0.947078
0.951278
0.956878
0.964233
0.973318
0.982533
0.988291
0.97651
0.976951
0.976169
0.972989
0.967837
0.961636
0.955292
0.949635
0.945221
0.942279
0.940837
0.940871
0.942344
0.945169
0.949209
0.954466
0.961429
0.970673
0.980964
0.98801
0.976343
0.976723
0.975936
0.972832
0.967745
0.961589
0.955277
0.949617
0.945148
0.9421
0.940523
0.940408
0.941729
0.944401
0.948248
0.953135
0.959524
0.968583
0.979706
0.987857
0.976135
0.976517
0.975848
0.973022
0.968246
0.962383
0.956321
0.950828
0.946418
0.943331
0.941637
0.941342
0.942435
0.944841
0.948379
0.952838
0.958525
0.967053
0.978715
0.98784
0.975874
0.976319
0.975896
0.973573
0.969393
0.964099
0.958522
0.953371
0.949135
0.946068
0.944272
0.943752
0.944529
0.946528
0.949594
0.953487
0.958382
0.966165
0.978075
0.987933
0.975532
0.976072
0.975892
0.974119
0.97068
0.966173
0.961328
0.956771
0.952934
0.950063
0.948275
0.947571
0.947986
0.949464
0.951881
0.955076
0.959127
0.965909
0.977743
0.988141
0.975128
0.975788
0.975924
0.974793
0.972256
0.96874
0.964837
0.961065
0.957795
0.955244
0.953527
0.952664
0.952665
0.953517
0.955147
0.957478
0.960611
0.966186
0.977733
0.988468
0.974725
0.975374
0.975613
0.974947
0.973242
0.970777
0.967965
0.965186
0.962708
0.9607
0.959237
0.95836
0.958043
0.958318
0.959182
0.960625
0.962933
0.967448
0.978408
0.989024
0.97444
0.975231
0.975711
0.97544
0.974477
0.972989
0.971217
0.969393
0.967685
0.966221
0.965047
0.964218
0.963726
0.963604
0.963929
0.964672
0.966368
0.969837
0.97967
0.989725
0.970583
0.974367
0.974353
0.974214
0.973695
0.973005
0.972218
0.971486
0.970814
0.970318
0.969955
0.969789
0.969798
0.969967
0.970427
0.971017
0.972529
0.975162
0.982618
0.990926
0.979339
0.981836
0.983172
0.983972
0.984399
0.984666
0.984805
0.984947
0.985047
0.985204
0.985343
0.985554
0.985751
0.986018
0.986276
0.986634
0.987093
0.988059
0.989988
0.993384
)
;

boundaryField
{
    movingWall
    {
        type            fixedValue;
        value           uniform 1;
    }
    fixedWalls
    {
        type            zeroGradient;
    }
    frontAndBack
    {
        type            empty;
    }
}


// ************************************************************************* //
