/*--------------------------------*- C++ -*----------------------------------*\
| =========                 |                                                 |
| \\      /  F ield         | OpenFOAM: The Open Source CFD Toolbox           |
|  \\    /   O peration     | Version:  2212                                  |
|   \\  /    A nd           | Website:  www.openfoam.com                      |
|    \\/     M anipulation  |                                                 |
\*---------------------------------------------------------------------------*/
FoamFile
{
    version     2.0;
    format      ascii;
    arch        "LSB;label=32;scalar=64";
    class       surfaceScalarField;
    location    "4";
    object      phi;
}
// * * * * * * * * * * * * * * * * * * * * * * * * * * * * * * * * * * * * * //

dimensions      [0 3 -1 0 0 0 0];

oriented        oriented;

internalField   nonuniform List<scalar> 
760
(
1.53319e-07
-1.53318e-07
2.87693e-07
-1.34374e-07
3.02678e-07
-1.49855e-08
1.7658e-07
1.26098e-07
-1.25448e-07
3.02028e-07
-6.66296e-07
5.40848e-07
-1.47759e-06
8.11298e-07
-2.47398e-06
9.96385e-07
-3.45646e-06
9.82478e-07
-4.19403e-06
7.37568e-07
-4.51978e-06
3.25754e-07
-4.33673e-06
-1.83044e-07
-3.58723e-06
-7.495e-07
-2.38389e-06
-1.20335e-06
-9.54858e-07
-1.42903e-06
3.27183e-07
-1.28204e-06
1.07141e-06
-7.44229e-07
1.02207e-06
4.93452e-08
4.57144e-07
5.64923e-07
4.57145e-07
1.20389e-07
-2.73707e-07
6.63402e-08
-8.03254e-08
-3.04258e-07
3.55612e-07
-1.07985e-06
9.01694e-07
-2.30512e-06
1.52729e-06
-3.9013e-06
2.13703e-06
-5.62197e-06
2.53197e-06
-7.15725e-06
2.53166e-06
-8.28313e-06
2.10836e-06
-8.88923e-06
1.34367e-06
-8.92802e-06
3.64542e-07
-8.37631e-06
-7.34752e-07
-7.26512e-06
-1.86069e-06
-5.62668e-06
-2.84179e-06
-3.60359e-06
-3.45212e-06
-1.49846e-06
-3.38717e-06
1.64056e-07
-2.40674e-06
8.472e-07
-6.33799e-07
5.20962e-07
8.9116e-07
9.78108e-07
-1.30828e-07
-1.4288e-07
-6.36258e-07
4.25105e-07
-1.61963e-06
1.33899e-06
-3.12164e-06
2.4037e-06
-5.01944e-06
3.42509e-06
-7.01851e-06
4.13611e-06
-8.80653e-06
4.31999e-06
-1.02033e-05
3.9284e-06
-1.11561e-05
3.06121e-06
-1.16571e-05
1.84465e-06
-1.16558e-05
3.63246e-07
-1.12032e-05
-1.18732e-06
-1.02801e-05
-2.7838e-06
-8.83206e-06
-4.28985e-06
-6.83855e-06
-5.44563e-06
-4.38774e-06
-5.83799e-06
-1.87653e-06
-4.91794e-06
-9.11923e-08
-2.41914e-06
2.92484e-07
5.07484e-07
1.27059e-06
-4.98452e-07
3.55573e-07
-1.55038e-06
1.47703e-06
-3.09524e-06
2.88386e-06
-5.03818e-06
4.34664e-06
-7.12361e-06
5.51051e-06
-9.0472e-06
6.0597e-06
-1.06072e-05
5.88003e-06
-1.17599e-05
5.08103e-06
-1.25326e-05
3.8339e-06
-1.29601e-05
2.27222e-06
-1.30286e-05
4.31694e-07
-1.27943e-05
-1.42156e-06
-1.222e-05
-3.35816e-06
-1.12035e-05
-5.30632e-06
-9.61368e-06
-7.03546e-06
-7.32584e-06
-8.12583e-06
-4.37823e-06
-7.86556e-06
-1.37527e-06
-5.4221e-06
1.1861e-07
-9.86394e-07
1.3892e-06
-8.54222e-07
1.20979e-06
-2.33968e-06
2.96249e-06
-4.1922e-06
4.73637e-06
-6.22043e-06
6.37488e-06
-8.14703e-06
7.43711e-06
-9.75046e-06
7.66312e-06
-1.09528e-05
7.08234e-06
-1.17794e-05
5.90763e-06
-1.2292e-05
4.3465e-06
-1.25636e-05
2.5439e-06
-1.26848e-05
5.52829e-07
-1.26441e-05
-1.46228e-06
-1.24316e-05
-3.57065e-06
-1.19675e-05
-5.77042e-06
-1.10649e-05
-7.93799e-06
-9.4362e-06
-9.75456e-06
-6.7836e-06
-1.05182e-05
-3.20679e-06
-8.99891e-06
-2.62213e-07
-3.93097e-06
1.12699e-06
-1.07451e-06
2.2843e-06
-2.7543e-06
4.64228e-06
-4.62908e-06
6.61115e-06
-6.47018e-06
8.21598e-06
-8.05526e-06
9.02219e-06
-9.25275e-06
8.86061e-06
-1.00568e-05
7.88642e-06
-1.05317e-05
6.3825e-06
-1.07678e-05
4.58258e-06
-1.08658e-05
2.6419e-06
-1.09475e-05
6.34585e-07
-1.10027e-05
-1.40709e-06
-1.10458e-05
-3.52761e-06
-1.10464e-05
-5.76977e-06
-1.08495e-05
-8.13493e-06
-1.01267e-05
-1.04773e-05
-8.38512e-06
-1.22598e-05
-5.21252e-06
-1.21715e-05
-1.1531e-06
-7.99039e-06
-2.61122e-08
-1.09637e-06
3.38067e-06
-2.7262e-06
6.27211e-06
-4.40701e-06
8.29197e-06
-5.92863e-06
9.73759e-06
-7.13163e-06
1.02252e-05
-7.95223e-06
9.68121e-06
-8.42629e-06
8.36048e-06
-8.64011e-06
6.59631e-06
-8.69776e-06
4.64023e-06
-8.69797e-06
2.64211e-06
-8.72541e-06
6.62018e-07
-8.80031e-06
-1.33218e-06
-8.94211e-06
-3.38582e-06
-9.16129e-06
-5.55059e-06
-9.39879e-06
-7.89743e-06
-9.42037e-06
-1.04557e-05
-8.70575e-06
-1.29744e-05
-6.50098e-06
-1.43763e-05
-2.40825e-06
-1.20831e-05
-2.43436e-06
-9.22657e-07
4.30333e-06
-2.31849e-06
7.66794e-06
-3.69195e-06
9.66542e-06
-4.85992e-06
1.09056e-05
-5.72117e-06
1.10864e-05
-6.25725e-06
1.02173e-05
-6.52376e-06
8.62698e-06
-6.61132e-06
6.68388e-06
-6.61725e-06
4.64617e-06
-6.61661e-06
2.64148e-06
-6.64746e-06
6.92869e-07
-6.72788e-06
-1.25176e-06
-6.87942e-06
-3.23428e-06
-7.13236e-06
-5.29765e-06
-7.50207e-06
-7.52772e-06
-7.89381e-06
-1.0064e-05
-7.89393e-06
-1.29743e-05
-6.68505e-06
-1.55852e-05
-3.56361e-06
-1.52046e-05
-5.99797e-06
-6.15378e-07
4.91871e-06
-1.66581e-06
8.71838e-06
-2.6887e-06
1.06883e-05
-3.51914e-06
1.1736e-05
-4.10094e-06
1.16682e-05
-4.443e-06
1.05594e-05
-4.60316e-06
8.78714e-06
-4.65997e-06
6.74069e-06
-4.68701e-06
4.67321e-06
-4.72974e-06
2.6842e-06
-4.79944e-06
7.62577e-07
-4.90332e-06
-1.14789e-06
-5.0519e-06
-3.0857e-06
-5.27436e-06
-5.07518e-06
-5.62559e-06
-7.1765e-06
-6.11657e-06
-9.57302e-06
-6.52364e-06
-1.25672e-05
-6.10284e-06
-1.6006e-05
-3.90564e-06
-1.74018e-05
-9.9036e-06
-2.27891e-07
5.1466e-06
-8.80663e-07
9.37115e-06
-1.54537e-06
1.1353e-05
-2.06891e-06
1.22595e-05
-2.42279e-06
1.20221e-05
-2.63061e-06
1.07672e-05
-2.74026e-06
8.89678e-06
-2.80529e-06
6.80572e-06
-2.87146e-06
4.73938e-06
-2.96176e-06
2.7745e-06
-3.07927e-06
8.80081e-07
-3.22403e-06
-1.00312e-06
-3.39677e-06
-2.91297e-06
-3.61054e-06
-4.86141e-06
-3.9177e-06
-6.86934e-06
-4.39968e-06
-9.09104e-06
-4.99902e-06
-1.19679e-05
-5.10793e-06
-1.5897e-05
-3.54781e-06
-1.89619e-05
-1.34514e-05
1.62622e-07
4.98397e-06
-6.74131e-08
9.60119e-06
-3.96645e-07
1.16822e-05
-6.44255e-07
1.25071e-05
-7.95568e-07
1.21734e-05
-8.81409e-07
1.0853e-05
-9.41437e-07
8.95681e-06
-1.00794e-06
6.87223e-06
-1.09797e-06
4.8294e-06
-1.21927e-06
2.8958e-06
-1.37404e-06
1.03485e-06
-1.56445e-06
-8.12712e-07
-1.78968e-06
-2.68774e-06
-2.04849e-06
-4.6026e-06
-2.37003e-06
-6.5478e-06
-2.84866e-06
-8.61241e-06
-3.54544e-06
-1.12711e-05
-4.01787e-06
-1.54246e-05
-3.02088e-06
-1.99589e-05
-1.64723e-05
4.95051e-07
4.48892e-06
6.91378e-07
9.40486e-06
7.34381e-07
1.16392e-05
7.70496e-07
1.2471e-05
8.16614e-07
1.21273e-05
8.46883e-07
1.08228e-05
8.40925e-07
8.96277e-06
7.90169e-07
6.92298e-06
6.96392e-07
4.92318e-06
5.61782e-07
3.03041e-06
3.82031e-07
1.2146e-06
1.5088e-07
-5.81561e-07
-1.33925e-07
-2.40293e-06
-4.79174e-07
-4.25735e-06
-8.90675e-07
-6.1363e-06
-1.41581e-06
-8.08727e-06
-2.20167e-06
-1.04852e-05
-2.95581e-06
-1.46705e-05
-2.46204e-06
-2.04526e-05
-1.89343e-05
7.46261e-07
3.74266e-06
1.33805e-06
8.81307e-06
1.7274e-06
1.12499e-05
2.05476e-06
1.21437e-05
2.32693e-06
1.18551e-05
2.51272e-06
1.0637e-05
2.60291e-06
8.87257e-06
2.6081e-06
6.91779e-06
2.5431e-06
4.98819e-06
2.41626e-06
3.15725e-06
2.22149e-06
1.40938e-06
1.94485e-06
-3.04925e-07
1.58521e-06
-2.04329e-06
1.13759e-06
-3.80973e-06
5.96545e-07
-5.59526e-06
-9.17332e-08
-7.39899e-06
-9.6659e-07
-9.61035e-06
-1.93029e-06
-1.37068e-05
-1.9305e-06
-2.04524e-05
-2.08648e-05
8.58323e-07
2.88434e-06
1.78755e-06
7.88385e-06
2.52247e-06
1.0515e-05
3.15854e-06
1.15076e-05
3.70265e-06
1.1311e-05
4.11062e-06
1.0229e-05
4.36554e-06
8.61765e-06
4.48123e-06
6.8021e-06
4.48166e-06
4.98776e-06
4.38327e-06
3.25564e-06
4.18495e-06
1.60769e-06
3.86004e-06
1.99879e-08
3.41999e-06
-1.60325e-06
2.84367e-06
-3.2334e-06
2.13026e-06
-4.88185e-06
1.29599e-06
-6.56472e-06
2.47797e-07
-8.56216e-06
-9.75111e-07
-1.24839e-05
-1.43524e-06
-1.99923e-05
-2.23001e-05
7.94297e-07
2.09004e-06
1.92795e-06
6.7502e-06
2.96044e-06
9.48247e-06
3.9261e-06
1.0542e-05
4.797e-06
1.04401e-05
5.50641e-06
9.51959e-06
6.01434e-06
8.10973e-06
6.32355e-06
6.4929e-06
6.45591e-06
4.85539e-06
6.43116e-06
3.28039e-06
6.24968e-06
1.78917e-06
5.90507e-06
3.64597e-07
5.37156e-06
-1.06973e-06
4.65141e-06
-2.51326e-06
3.73668e-06
-3.96712e-06
2.65526e-06
-5.4833e-06
1.36322e-06
-7.27012e-06
-1.69272e-07
-1.09514e-05
-9.24138e-07
-1.92374e-05
-2.32242e-05
5.68451e-07
1.52159e-06
1.73462e-06
5.58403e-06
3.05964e-06
8.15745e-06
4.39912e-06
9.20248e-06
5.65581e-06
9.18344e-06
6.73081e-06
8.44459e-06
7.55812e-06
7.28242e-06
8.12481e-06
5.9262e-06
8.44396e-06
4.53625e-06
8.53371e-06
3.19064e-06
8.40152e-06
1.92136e-06
8.04576e-06
7.20356e-07
7.42336e-06
-4.47331e-07
6.55038e-06
-1.64027e-06
5.41362e-06
-2.83036e-06
4.05398e-06
-4.12366e-06
2.53826e-06
-5.7544e-06
9.32138e-07
-9.34526e-06
-1.55955e-07
-1.81493e-05
-2.33802e-05
1.46937e-07
1.37466e-06
1.02015e-06
4.71082e-06
2.48242e-06
6.69517e-06
4.18992e-06
7.49498e-06
5.89905e-06
7.47431e-06
7.42276e-06
6.92088e-06
8.65803e-06
6.04715e-06
9.57503e-06
5.0092e-06
1.01691e-05
3.94215e-06
1.04531e-05
2.90663e-06
1.04335e-05
1.94103e-06
1.01165e-05
1.03735e-06
9.46078e-06
2.08351e-07
8.48121e-06
-6.60701e-07
7.1724e-06
-1.52156e-06
5.5841e-06
-2.53536e-06
3.87407e-06
-4.04437e-06
2.2184e-06
-7.68959e-06
6.44533e-07
-1.65755e-05
-2.27356e-05
-5.13377e-07
1.88803e-06
1.93568e-07
4.00388e-06
1.73224e-06
5.1565e-06
3.77749e-06
5.44973e-06
5.9158e-06
5.336e-06
7.86253e-06
4.97415e-06
9.48095e-06
4.42873e-06
1.073e-05
3.76019e-06
1.15921e-05
3.08004e-06
1.20847e-05
2.41401e-06
1.22125e-05
1.81322e-06
1.19961e-05
1.25378e-06
1.14563e-05
7.48148e-07
1.05688e-05
2.26797e-07
9.33723e-06
-2.90001e-07
7.8298e-06
-1.02792e-06
6.23227e-06
-2.44684e-06
4.43794e-06
-5.89527e-06
2.04781e-06
-1.41853e-05
-2.06878e-05
-4.17508e-06
6.06311e-06
-3.63965e-06
3.46846e-06
-1.25581e-06
2.77266e-06
1.52717e-06
2.66675e-06
4.25048e-06
2.61269e-06
6.76972e-06
2.45491e-06
8.9733e-06
2.22515e-06
1.08018e-05
1.93169e-06
1.22376e-05
1.64423e-06
1.3308e-05
1.34361e-06
1.40303e-05
1.09093e-06
1.44488e-05
8.35253e-07
1.45525e-05
6.44472e-07
1.43521e-05
4.27152e-07
1.38371e-05
2.25038e-07
1.30223e-05
-2.13168e-07
1.18993e-05
-1.32374e-06
1.01031e-05
-4.09911e-06
5.63407e-06
-9.71632e-06
-1.50538e-05
6.06311e-06
9.53156e-06
1.23042e-05
1.4971e-05
1.75837e-05
2.00386e-05
2.22637e-05
2.41954e-05
2.58396e-05
2.71833e-05
2.82742e-05
2.91094e-05
2.97539e-05
3.01811e-05
3.04061e-05
3.01929e-05
2.88692e-05
2.47701e-05
1.50538e-05
)
;

boundaryField
{
    movingWall
    {
        type            calculated;
        value           uniform 0;
    }
    fixedWalls
    {
        type            calculated;
        value           uniform 0;
    }
    frontAndBack
    {
        type            empty;
        value           nonuniform List<scalar> 0();
    }
}


// ************************************************************************* //
