/*--------------------------------*- C++ -*----------------------------------*\
| =========                 |                                                 |
| \\      /  F ield         | OpenFOAM: The Open Source CFD Toolbox           |
|  \\    /   O peration     | Version:  2212                                  |
|   \\  /    A nd           | Website:  www.openfoam.com                      |
|    \\/     M anipulation  |                                                 |
\*---------------------------------------------------------------------------*/
FoamFile
{
    version     2.0;
    format      ascii;
    arch        "LSB;label=32;scalar=64";
    class       volScalarField;
    location    "4";
    object      T;
}
// * * * * * * * * * * * * * * * * * * * * * * * * * * * * * * * * * * * * * //

dimensions      [0 0 0 1 0 0 0];

internalField   nonuniform List<scalar> 
400
(
0.432862
0.452529
0.49188
0.548989
0.6138
0.670606
0.708718
0.728443
0.737408
0.742585
0.746408
0.749374
0.751592
0.752693
0.751902
0.747712
0.737659
0.71805
0.689351
0.665769
0.458798
0.482396
0.529182
0.594776
0.66203
0.709529
0.732133
0.741366
0.746582
0.750421
0.75395
0.757739
0.76184
0.765612
0.767381
0.764292
0.752097
0.727005
0.693647
0.668519
0.499176
0.530139
0.587227
0.655028
0.70829
0.734062
0.742248
0.744858
0.745153
0.745137
0.746665
0.751001
0.758264
0.767958
0.777464
0.782276
0.774666
0.746096
0.701649
0.673442
0.539137
0.577914
0.640581
0.698608
0.730552
0.738147
0.735367
0.72835
0.719534
0.712693
0.710283
0.714586
0.725399
0.743065
0.764952
0.786253
0.797062
0.782049
0.72873
0.687918
0.571116
0.61552
0.677192
0.719644
0.731711
0.724358
0.709138
0.689729
0.670889
0.656912
0.650395
0.653743
0.666661
0.690185
0.722843
0.761263
0.79709
0.813708
0.782053
0.717685
0.594192
0.641012
0.697119
0.723248
0.718431
0.697646
0.669872
0.639682
0.613416
0.594631
0.58549
0.587411
0.600543
0.62591
0.663482
0.711817
0.765943
0.813878
0.82816
0.763033
0.609865
0.656189
0.70463
0.716229
0.697773
0.665657
0.627852
0.590688
0.5606
0.539995
0.530118
0.531171
0.543557
0.568199
0.606154
0.657706
0.720398
0.786393
0.837586
0.825691
0.619906
0.663778
0.70464
0.70486
0.676001
0.635098
0.590398
0.54953
0.518133
0.497491
0.487796
0.48841
0.499537
0.522037
0.557677
0.608599
0.675021
0.751182
0.822275
0.860557
0.625902
0.666287
0.700729
0.692936
0.656749
0.609804
0.561035
0.518582
0.487123
0.467084
0.45781
0.458267
0.468339
0.488557
0.520534
0.56757
0.633563
0.716654
0.80061
0.853252
0.628912
0.665492
0.695356
0.683247
0.642882
0.592301
0.541277
0.49809
0.466706
0.446989
0.437776
0.437972
0.447353
0.466147
0.495203
0.537436
0.59937
0.685429
0.782636
0.848656
0.629688
0.662571
0.68969
0.676428
0.634566
0.582482
0.530707
0.487315
0.455806
0.43585
0.426141
0.425705
0.434363
0.452198
0.479312
0.517303
0.573408
0.658286
0.764982
0.845478
0.628713
0.658187
0.684109
0.672863
0.632598
0.581218
0.529876
0.486442
0.454363
0.433552
0.422874
0.42148
0.429199
0.446062
0.471709
0.506224
0.555901
0.637103
0.75144
0.843915
0.626115
0.652681
0.678509
0.671615
0.635552
0.586922
0.537345
0.494564
0.462161
0.440489
0.428732
0.426154
0.432586
0.447968
0.471769
0.503094
0.546111
0.620855
0.740074
0.843771
0.621762
0.645963
0.672148
0.671549
0.642793
0.599736
0.553887
0.512905
0.480666
0.458174
0.445139
0.440959
0.445539
0.458639
0.479666
0.507219
0.543703
0.610881
0.732721
0.844942
0.61543
0.638384
0.664781
0.670521
0.650574
0.615351
0.57551
0.538413
0.50806
0.485932
0.472253
0.466567
0.468842
0.478734
0.495647
0.518503
0.54852
0.606403
0.728186
0.847346
0.607356
0.629546
0.655946
0.667828
0.658275
0.633606
0.60253
0.571681
0.54504
0.524456
0.51059
0.503328
0.502561
0.508089
0.519517
0.536242
0.55963
0.607063
0.727342
0.851169
0.599844
0.621488
0.646143
0.660766
0.65939
0.645435
0.624896
0.602903
0.582739
0.566195
0.55397
0.546301
0.543004
0.544135
0.549909
0.560098
0.577947
0.617047
0.733636
0.857634
0.594261
0.614588
0.638967
0.655041
0.660022
0.655664
0.645482
0.632648
0.619539
0.607677
0.597843
0.590508
0.585933
0.584157
0.586362
0.591924
0.606885
0.639267
0.747037
0.865967
0.546481
0.614842
0.626158
0.63652
0.640552
0.640982
0.638912
0.636187
0.633168
0.631226
0.630103
0.630535
0.63243
0.63558
0.641623
0.64863
0.665582
0.694592
0.779821
0.880266
0.67901
0.71975
0.743083
0.75876
0.769103
0.776876
0.782564
0.787819
0.792113
0.796775
0.800822
0.805548
0.809708
0.814684
0.819109
0.824857
0.831155
0.8438
0.86701
0.910417
)
;

boundaryField
{
    movingWall
    {
        type            fixedValue;
        value           uniform 1;
    }
    fixedWalls
    {
        type            zeroGradient;
    }
    frontAndBack
    {
        type            empty;
    }
}


// ************************************************************************* //
