/*--------------------------------*- C++ -*----------------------------------*\
| =========                 |                                                 |
| \\      /  F ield         | OpenFOAM: The Open Source CFD Toolbox           |
|  \\    /   O peration     | Version:  2212                                  |
|   \\  /    A nd           | Website:  www.openfoam.com                      |
|    \\/     M anipulation  |                                                 |
\*---------------------------------------------------------------------------*/
FoamFile
{
    version     2.0;
    format      ascii;
    arch        "LSB;label=32;scalar=64";
    class       volScalarField;
    location    "21";
    object      T;
}
// * * * * * * * * * * * * * * * * * * * * * * * * * * * * * * * * * * * * * //

dimensions      [0 0 0 1 0 0 0];

internalField   nonuniform List<scalar> 
400
(
0.98785
0.988103
0.988616
0.989375
0.990263
0.991075
0.991662
0.992006
0.992193
0.992321
0.992438
0.992559
0.992689
0.992823
0.992942
0.993012
0.992977
0.992781
0.992457
0.992191
0.988172
0.988483
0.989104
0.989994
0.990939
0.991639
0.991984
0.992106
0.992147
0.992178
0.992243
0.992367
0.992559
0.992809
0.993066
0.993255
0.993258
0.992987
0.99256
0.992252
0.988675
0.989093
0.989867
0.990801
0.991538
0.991851
0.991837
0.991681
0.991488
0.991342
0.991316
0.991464
0.991785
0.992272
0.992835
0.993348
0.993596
0.993366
0.992748
0.992365
0.989168
0.989697
0.990542
0.991299
0.991619
0.991468
0.991042
0.990501
0.989967
0.989573
0.989419
0.989589
0.990064
0.990852
0.991847
0.992893
0.993707
0.993914
0.993231
0.992628
0.989547
0.990138
0.990916
0.991333
0.991157
0.990502
0.989587
0.98858
0.98766
0.986989
0.986686
0.98685
0.987455
0.988521
0.989953
0.991595
0.99316
0.994205
0.994096
0.993115
0.989795
0.990382
0.990979
0.990978
0.990285
0.989109
0.987684
0.986221
0.984946
0.98403
0.983596
0.983721
0.984404
0.985658
0.987417
0.98955
0.991803
0.99376
0.994737
0.993827
0.98993
0.990452
0.990802
0.990376
0.9892
0.987541
0.985661
0.983825
0.982283
0.981205
0.980691
0.980782
0.98149
0.982822
0.984752
0.987198
0.989956
0.992639
0.994634
0.99485
0.989984
0.990411
0.990514
0.989715
0.988123
0.986052
0.983807
0.981699
0.97999
0.978829
0.978284
0.978362
0.979063
0.980389
0.982342
0.984916
0.987997
0.99124
0.994006
0.995396
0.989984
0.990309
0.990195
0.989097
0.987182
0.984804
0.982303
0.980022
0.978217
0.977017
0.976459
0.976531
0.977218
0.978505
0.980396
0.982936
0.986153
0.989817
0.993202
0.995145
0.98995
0.990191
0.989929
0.988644
0.986521
0.983939
0.981271
0.978878
0.977009
0.975777
0.975197
0.975252
0.975923
0.977177
0.978991
0.981408
0.984581
0.9885
0.992473
0.994956
0.989893
0.990077
0.989733
0.988359
0.986136
0.983461
0.980723
0.978281
0.976376
0.975105
0.974483
0.974498
0.975134
0.976353
0.978098
0.980367
0.983372
0.98736
0.991797
0.994835
0.98982
0.989979
0.989633
0.988291
0.986096
0.98344
0.980716
0.978273
0.976344
0.975028
0.974347
0.974298
0.974868
0.976022
0.977683
0.979792
0.98255
0.986458
0.991255
0.994768
0.989731
0.989891
0.989596
0.988374
0.986313
0.983783
0.981167
0.978796
0.976892
0.97556
0.974828
0.974701
0.975173
0.976211
0.977739
0.979664
0.982119
0.985799
0.990828
0.994761
0.989618
0.989806
0.989618
0.988612
0.986808
0.984523
0.982117
0.979894
0.978065
0.976741
0.975966
0.975741
0.976077
0.97694
0.978264
0.979944
0.982057
0.985416
0.990552
0.994801
0.989472
0.989701
0.989618
0.988849
0.987363
0.985418
0.983328
0.981361
0.979705
0.978466
0.977694
0.97739
0.97757
0.978207
0.979251
0.98063
0.982379
0.985305
0.990409
0.994891
0.989298
0.989579
0.989633
0.989141
0.988044
0.986526
0.984842
0.983214
0.981803
0.980702
0.979961
0.979589
0.979589
0.979957
0.98066
0.981667
0.983019
0.985425
0.990405
0.995031
0.989124
0.989402
0.9895
0.989209
0.988471
0.987406
0.986192
0.984993
0.983923
0.983057
0.982425
0.982047
0.98191
0.982029
0.982402
0.983025
0.984021
0.98597
0.990696
0.995271
0.989002
0.989341
0.989544
0.989424
0.989006
0.988362
0.987597
0.986809
0.986072
0.98544
0.984933
0.984575
0.984363
0.984311
0.984451
0.984772
0.985504
0.987
0.99124
0.995573
0.98734
0.988966
0.988958
0.988896
0.98867
0.988371
0.988031
0.987714
0.987424
0.98721
0.987053
0.986981
0.986984
0.987057
0.987255
0.987509
0.988161
0.989296
0.992511
0.996091
0.991109
0.992183
0.992757
0.993101
0.993284
0.993398
0.993457
0.993518
0.99356
0.993628
0.993687
0.993778
0.993862
0.993977
0.994088
0.994242
0.994439
0.994856
0.995687
0.99715
)
;

boundaryField
{
    movingWall
    {
        type            fixedValue;
        value           uniform 1;
    }
    fixedWalls
    {
        type            zeroGradient;
    }
    frontAndBack
    {
        type            empty;
    }
}


// ************************************************************************* //
