/*--------------------------------*- C++ -*----------------------------------*\
| =========                 |                                                 |
| \\      /  F ield         | OpenFOAM: The Open Source CFD Toolbox           |
|  \\    /   O peration     | Version:  2212                                  |
|   \\  /    A nd           | Website:  www.openfoam.com                      |
|    \\/     M anipulation  |                                                 |
\*---------------------------------------------------------------------------*/
FoamFile
{
    version     2.0;
    format      ascii;
    arch        "LSB;label=32;scalar=64";
    class       volScalarField;
    location    "6.5";
    object      p;
}
// * * * * * * * * * * * * * * * * * * * * * * * * * * * * * * * * * * * * * //

dimensions      [0 2 -2 0 0 0 0];

internalField   nonuniform List<scalar> 
400
(
-7.14536e-08
-0.000150924
-0.000534626
-0.0010714
-0.00173164
-0.00249247
-0.00318306
-0.00359531
-0.003563
-0.00293195
-0.00154705
0.000619851
0.00324938
0.00551443
0.00653629
0.00592884
0.004011
0.0021601
0.00112125
0.00105189
0.000115926
-5.83334e-05
-0.000376953
-0.000763855
-0.00124349
-0.00188711
-0.00270443
-0.00354086
-0.00407672
-0.0039351
-0.00284377
-0.000823239
0.00169028
0.00396231
0.00512818
0.00474976
0.00311288
0.00138561
0.00060408
0.000694617
0.000535729
0.000264579
-7.73843e-05
-0.000559394
-0.00134645
-0.00257859
-0.00421531
-0.00597789
-0.00739499
-0.00793569
-0.00725663
-0.00545557
-0.00288638
-0.000189746
0.00179765
0.00243579
0.00171924
0.000513572
-0.000384525
-0.000381854
0.00115045
0.000740132
0.000191363
-0.000774361
-0.00244885
-0.00493263
-0.00798615
-0.0111075
-0.013687
-0.0151589
-0.0151888
-0.0138231
-0.0112789
-0.00801642
-0.00474088
-0.00219872
-0.000859193
-0.000694816
-0.00127718
-0.00190682
0.0015804
0.000971521
-2.37504e-05
-0.00192252
-0.00500106
-0.00916889
-0.013896
-0.0184556
-0.0221866
-0.0246199
-0.0254946
-0.0246903
-0.0223342
-0.0187185
-0.0142838
-0.00963861
-0.00557795
-0.00293678
-0.00218211
-0.0040058
0.00128948
0.000442255
-0.00119767
-0.00430015
-0.0089939
-0.0148608
-0.0210435
-0.0266771
-0.0311455
-0.0341278
-0.0354927
-0.0351382
-0.03315
-0.029678
-0.0248657
-0.0189344
-0.0124852
-0.00693357
-0.00438872
-0.00651054
-5.1988e-05
-0.00114966
-0.00349776
-0.00778822
-0.0139141
-0.0210843
-0.028194
-0.034354
-0.0390653
-0.0421619
-0.0436468
-0.0435388
-0.0419062
-0.0388203
-0.0342621
-0.0281186
-0.0205103
-0.0126828
-0.00784038
-0.00773565
-0.00245237
-0.00374209
-0.00669337
-0.0118991
-0.0190131
-0.0269409
-0.0344486
-0.0407098
-0.0453695
-0.048387
-0.0498456
-0.0498379
-0.0484432
-0.0457111
-0.0415974
-0.0358748
-0.0282864
-0.0193435
-0.0118045
-0.00796893
-0.00553642
-0.00691173
-0.010254
-0.0160015
-0.0236233
-0.0318383
-0.0393834
-0.0455289
-0.0500394
-0.052949
-0.0543727
-0.0544134
-0.0531458
-0.0506304
-0.0468814
-0.0417472
-0.0348179
-0.0259115
-0.0166853
-0.00997938
-0.00872898
-0.0100787
-0.0135835
-0.0195161
-0.0272445
-0.0354274
-0.042834
-0.0488139
-0.0531979
-0.0560439
-0.0574614
-0.0575329
-0.0563215
-0.0539011
-0.0503575
-0.0456848
-0.0395753
-0.0314801
-0.0222901
-0.0143175
-0.0114963
-0.0127476
-0.0162017
-0.0220243
-0.0295605
-0.0375233
-0.0447418
-0.0505958
-0.0549225
-0.0577612
-0.0591966
-0.0592882
-0.0580862
-0.0556697
-0.0521853
-0.0477702
-0.0423672
-0.0353342
-0.0271617
-0.0191506
-0.0135398
-0.0146066
-0.0178366
-0.0232838
-0.0303828
-0.0379959
-0.0450313
-0.0508441
-0.0552064
-0.0581048
-0.0595854
-0.0596879
-0.0584533
-0.0559618
-0.0524127
-0.0480555
-0.0431432
-0.0370082
-0.0299949
-0.0223861
-0.0148273
-0.0155556
-0.0183329
-0.0231798
-0.0296474
-0.0368148
-0.0436815
-0.0495383
-0.0540363
-0.0570696
-0.0586317
-0.0587391
-0.0574274
-0.0547997
-0.0510797
-0.0465792
-0.0419081
-0.036258
-0.0301934
-0.0228679
-0.015458
-0.015711
-0.0177607
-0.0217199
-0.0273495
-0.0339748
-0.0406757
-0.0466479
-0.0513842
-0.0546473
-0.0563546
-0.056496
-0.0550822
-0.052248
-0.0482602
-0.0435168
-0.0386855
-0.0331109
-0.0280755
-0.02026
-0.0155653
-0.0152889
-0.0163254
-0.0190678
-0.0236218
-0.0295884
-0.0361094
-0.0422569
-0.0473334
-0.0509336
-0.0528681
-0.0530721
-0.0515874
-0.0485024
-0.044157
-0.0390053
-0.0337531
-0.0280571
-0.0242207
-0.0143797
-0.015269
-0.014543
-0.0142527
-0.0154138
-0.0186646
-0.0238625
-0.0301846
-0.0365523
-0.0420609
-0.0461131
-0.0483954
-0.0487731
-0.0472677
-0.0439501
-0.0391976
-0.0334891
-0.0276309
-0.0216326
-0.0180631
-0.00384437
-0.0146559
-0.0136134
-0.0117035
-0.0110774
-0.0129454
-0.0173627
-0.0235035
-0.0301253
-0.0361342
-0.0407415
-0.0435026
-0.044186
-0.0427823
-0.0393228
-0.0341512
-0.0276775
-0.0206903
-0.0132991
-0.00681692
0.0160255
-0.0145798
-0.0126548
-0.00864976
-0.00623902
-0.00691284
-0.0107416
-0.0168022
-0.0237105
-0.0302556
-0.0354853
-0.0388434
-0.039975
-0.0388245
-0.0354083
-0.029875
-0.0222772
-0.012896
-0.000728496
0.0166471
0.0570242
-0.0117939
-0.0118313
-0.00573255
-0.00178638
-0.00177621
-0.00541028
-0.0115702
-0.0187967
-0.0258438
-0.0316445
-0.0356125
-0.0373111
-0.0366401
-0.0333227
-0.0272105
-0.0175504
-0.00317982
0.0204413
0.0606505
0.129778
-0.0295149
-0.0106321
-0.000618319
0.00306629
0.00243346
-0.0015665
-0.00799879
-0.0155396
-0.0229489
-0.029135
-0.0334858
-0.0355403
-0.0351585
-0.0319248
-0.0252138
-0.0128669
0.00939361
0.0511266
0.12283
0.226037
)
;

boundaryField
{
    movingWall
    {
        type            zeroGradient;
    }
    fixedWalls
    {
        type            zeroGradient;
    }
    frontAndBack
    {
        type            empty;
    }
}


// ************************************************************************* //
