/*--------------------------------*- C++ -*----------------------------------*\
| =========                 |                                                 |
| \\      /  F ield         | OpenFOAM: The Open Source CFD Toolbox           |
|  \\    /   O peration     | Version:  2212                                  |
|   \\  /    A nd           | Website:  www.openfoam.com                      |
|    \\/     M anipulation  |                                                 |
\*---------------------------------------------------------------------------*/
FoamFile
{
    version     2.0;
    format      ascii;
    arch        "LSB;label=32;scalar=64";
    class       surfaceScalarField;
    location    "6.5";
    object      phi;
}
// * * * * * * * * * * * * * * * * * * * * * * * * * * * * * * * * * * * * * //

dimensions      [0 3 -1 0 0 0 0];

oriented        oriented;

internalField   nonuniform List<scalar> 
760
(
1.55916e-07
-1.55911e-07
2.93227e-07
-1.37311e-07
3.09483e-07
-1.62563e-08
1.83177e-07
1.26307e-07
-1.20687e-07
3.03863e-07
-6.65979e-07
5.45292e-07
-1.48475e-06
8.18768e-07
-2.48967e-06
1.00492e-06
-3.47865e-06
9.88983e-07
-4.21851e-06
7.39858e-07
-4.54236e-06
3.23855e-07
-4.3527e-06
-1.89664e-07
-3.59371e-06
-7.58992e-07
-2.37988e-06
-1.21383e-06
-9.41668e-07
-1.43821e-06
3.45754e-07
-1.28742e-06
1.08829e-06
-7.42533e-07
1.03217e-06
5.61203e-08
4.60691e-07
5.71476e-07
4.60692e-07
1.24723e-07
-2.80634e-07
7.40075e-08
-8.65948e-08
-2.97591e-07
3.55342e-07
-1.07907e-06
9.07784e-07
-2.31529e-06
1.54008e-06
-3.92564e-06
2.15565e-06
-5.65945e-06
2.55258e-06
-7.2034e-06
2.54887e-06
-8.33294e-06
2.11852e-06
-8.93833e-06
1.34524e-06
-8.97264e-06
3.58171e-07
-8.41335e-06
-7.48957e-07
-7.29177e-06
-1.88058e-06
-5.6413e-06
-2.8643e-06
-3.60615e-06
-3.47336e-06
-1.49134e-06
-3.40223e-06
1.77224e-07
-2.4111e-06
8.579e-07
-6.24557e-07
5.25296e-07
9.04078e-07
9.85988e-07
-1.27862e-07
-1.52772e-07
-6.34183e-07
4.19726e-07
-1.6247e-06
1.34586e-06
-3.14022e-06
2.42331e-06
-5.0549e-06
3.45475e-06
-7.06938e-06
4.17012e-06
-8.86836e-06
4.35156e-06
-1.02718e-05
3.95235e-06
-1.12281e-05
3.07482e-06
-1.17295e-05
1.84663e-06
-1.17239e-05
3.52553e-07
-1.12655e-05
-1.20732e-06
-1.03337e-05
-2.8124e-06
-8.87424e-06
-4.32378e-06
-6.86733e-06
-5.48027e-06
-4.40231e-06
-5.86725e-06
-1.87888e-06
-4.93453e-06
-8.69652e-08
-2.41647e-06
2.94474e-07
5.22639e-07
1.28046e-06
-5.00437e-07
3.47665e-07
-1.55943e-06
1.47872e-06
-3.1179e-06
2.90433e-06
-5.07834e-06
4.38375e-06
-7.18067e-06
5.55708e-06
-9.11729e-06
6.10674e-06
-1.0686e-05
5.92032e-06
-1.18444e-05
5.11071e-06
-1.26204e-05
3.85085e-06
-1.30488e-05
2.275e-06
-1.31141e-05
4.17824e-07
-1.28751e-05
-1.44634e-06
-1.22931e-05
-3.39437e-06
-1.12663e-05
-5.35052e-06
-9.66404e-06
-7.08257e-06
-7.3615e-06
-8.16979e-06
-4.39729e-06
-7.89874e-06
-1.37804e-06
-5.43571e-06
1.20504e-07
-9.7591e-07
1.40097e-06
-8.61442e-07
1.20911e-06
-2.3602e-06
2.97748e-06
-4.22986e-06
4.77399e-06
-6.27561e-06
6.42949e-06
-8.21651e-06
7.49798e-06
-9.82997e-06
7.72021e-06
-1.10393e-05
7.12966e-06
-1.1871e-05
5.94243e-06
-1.2387e-05
4.36678e-06
-1.26598e-05
2.54785e-06
-1.27804e-05
5.38385e-07
-1.27352e-05
-1.4915e-06
-1.25154e-05
-3.61415e-06
-1.2042e-05
-5.82394e-06
-1.11287e-05
-7.99592e-06
-9.48743e-06
-9.81103e-06
-6.81895e-06
-1.05672e-05
-3.2218e-06
-9.03286e-06
-2.61353e-07
-3.93635e-06
1.13961e-06
-1.08619e-06
2.2953e-06
-2.78238e-06
4.67367e-06
-4.67462e-06
6.66623e-06
-6.53113e-06
8.286e-06
-8.12774e-06
9.09459e-06
-9.33345e-06
8.92592e-06
-1.01442e-05
7.94038e-06
-1.0625e-05
6.42326e-06
-1.08662e-05
4.60798e-06
-1.09676e-05
2.64923e-06
-1.10506e-05
6.21374e-07
-1.11016e-05
-1.44049e-06
-1.11367e-05
-3.57903e-06
-1.11269e-05
-5.83374e-06
-1.09187e-05
-8.20416e-06
-1.01849e-05
-1.05448e-05
-8.43135e-06
-1.23208e-05
-5.24221e-06
-1.2222e-05
-1.15828e-06
-8.02029e-06
-1.86714e-08
-1.11007e-06
3.40536e-06
-2.7567e-06
6.3203e-06
-4.45318e-06
8.36271e-06
-5.98781e-06
9.82063e-06
-7.20055e-06
1.03073e-05
-8.02902e-06
9.75439e-06
-8.51088e-06
8.42224e-06
-8.7331e-06
6.64548e-06
-8.79924e-06
4.67412e-06
-8.80622e-06
2.65621e-06
-8.8364e-06
6.51557e-07
-8.90813e-06
-1.36876e-06
-9.04132e-06
-3.44584e-06
-9.2475e-06
-5.62756e-06
-9.47035e-06
-7.98132e-06
-9.47873e-06
-1.05364e-05
-8.75379e-06
-1.30457e-05
-6.53745e-06
-1.44383e-05
-2.42349e-06
-1.21342e-05
-2.44216e-06
-9.3546e-07
4.34083e-06
-2.3464e-06
7.73125e-06
-3.73301e-06
9.74932e-06
-4.91181e-06
1.09994e-05
-5.78183e-06
1.11774e-05
-6.32621e-06
1.02988e-05
-6.60202e-06
8.69805e-06
-6.70028e-06
6.74373e-06
-6.71698e-06
4.69082e-06
-6.72507e-06
2.6643e-06
-6.76015e-06
6.86644e-07
-6.83916e-06
-1.28975e-06
-6.98305e-06
-3.30194e-06
-7.22243e-06
-5.38818e-06
-7.57464e-06
-7.62911e-06
-7.94918e-06
-1.01619e-05
-7.93656e-06
-1.30583e-05
-6.71886e-06
-1.5656e-05
-3.5874e-06
-1.52657e-05
-6.02955e-06
-6.25119e-07
4.96594e-06
-1.68762e-06
8.79375e-06
-2.72077e-06
1.07825e-05
-3.55994e-06
1.18386e-05
-4.14956e-06
1.1767e-05
-4.49976e-06
1.0649e-05
-4.66938e-06
8.86767e-06
-4.7368e-06
6.81115e-06
-4.77428e-06
4.7283e-06
-4.82525e-06
2.71527e-06
-4.89969e-06
7.61083e-07
-5.00388e-06
-1.18556e-06
-5.14764e-06
-3.15819e-06
-5.35954e-06
-5.17628e-06
-5.69471e-06
-7.29394e-06
-6.16697e-06
-9.68961e-06
-6.55893e-06
-1.26664e-05
-6.12988e-06
-1.60851e-05
-3.92498e-06
-1.74706e-05
-9.95454e-06
-2.32749e-07
5.19869e-06
-8.93672e-07
9.45467e-06
-1.56546e-06
1.14543e-05
-2.09526e-06
1.23684e-05
-2.45537e-06
1.21271e-05
-2.67003e-06
1.08636e-05
-2.78743e-06
8.98507e-06
-2.86081e-06
6.88454e-06
-2.93477e-06
4.80226e-06
-3.03123e-06
2.81173e-06
-3.15293e-06
8.82787e-07
-3.29944e-06
-1.03906e-06
-3.47085e-06
-2.98678e-06
-3.67929e-06
-4.96783e-06
-3.97531e-06
-6.99793e-06
-4.4412e-06
-9.22372e-06
-5.02501e-06
-1.20826e-05
-5.12535e-06
-1.59847e-05
-3.55944e-06
-1.90365e-05
-1.3514e-05
1.63727e-07
5.03497e-06
-7.00906e-08
9.68849e-06
-4.03152e-07
1.17873e-05
-6.54286e-07
1.26195e-05
-8.09384e-07
1.22822e-05
-8.99562e-07
1.09538e-05
-9.64211e-07
9.04972e-06
-1.03522e-06
6.95554e-06
-1.12915e-06
4.89619e-06
-1.25379e-06
2.93637e-06
-1.41166e-06
1.04066e-06
-1.60491e-06
-8.45805e-07
-1.83203e-06
-2.75966e-06
-2.09077e-06
-4.70909e-06
-2.40849e-06
-6.68021e-06
-2.87686e-06
-8.75535e-06
-3.56095e-06
-1.13985e-05
-4.02618e-06
-1.55195e-05
-3.02626e-06
-2.00365e-05
-1.65402e-05
5.0191e-07
4.53306e-06
7.00024e-07
9.49038e-06
7.43387e-07
1.1744e-05
7.79139e-07
1.25838e-05
8.24145e-07
1.22372e-05
8.5306e-07
1.09249e-05
8.46197e-07
9.05659e-06
7.95346e-07
7.00639e-06
7.01419e-07
4.99012e-06
5.6616e-07
3.07163e-06
3.84422e-07
1.2224e-06
1.50016e-07
-6.11399e-07
-1.38678e-07
-2.47097e-06
-4.88311e-07
-4.35946e-06
-9.0267e-07
-6.26585e-06
-1.42551e-06
-8.23251e-06
-2.20428e-06
-1.06197e-05
-2.95419e-06
-1.47696e-05
-2.46107e-06
-2.05296e-05
-1.90013e-05
7.58683e-07
3.77437e-06
1.35781e-06
8.89125e-06
1.75182e-06
1.135e-05
2.08245e-06
1.22531e-05
2.35663e-06
1.1963e-05
2.54414e-06
1.07374e-05
2.63684e-06
8.96388e-06
2.64546e-06
6.99778e-06
2.58404e-06
5.05154e-06
2.45914e-06
3.19654e-06
2.26322e-06
1.41832e-06
1.98222e-06
-3.30406e-07
1.6167e-06
-2.10544e-06
1.16168e-06
-3.90444e-06
6.12809e-07
-5.71698e-06
-8.12745e-08
-7.53842e-06
-9.55054e-07
-9.74593e-06
-1.91819e-06
-1.38065e-05
-1.92478e-06
-2.0523e-05
-2.09261e-05
8.74115e-07
2.90026e-06
1.8164e-06
7.94896e-06
2.56054e-06
1.06058e-05
3.20378e-06
1.16099e-05
3.75357e-06
1.14132e-05
4.16667e-06
1.03243e-05
4.42719e-06
8.70335e-06
4.54911e-06
6.87585e-06
4.55536e-06
5.04529e-06
4.4611e-06
3.2908e-06
4.26426e-06
1.61516e-06
3.93234e-06
1.50788e-09
3.4859e-06
-1.659e-06
2.89931e-06
-3.31785e-06
2.17372e-06
-4.99139e-06
1.32801e-06
-6.69271e-06
2.71608e-07
-8.68953e-06
-9.55343e-07
-1.25795e-05
-1.42592e-06
-2.00524e-05
-2.2352e-05
8.09996e-07
2.09026e-06
1.96189e-06
6.79706e-06
3.00819e-06
9.55953e-06
3.98502e-06
1.06331e-05
4.86541e-06
1.05328e-05
5.58333e-06
9.60636e-06
6.09964e-06
8.18704e-06
6.4173e-06
6.55819e-06
6.55716e-06
4.90543e-06
6.53721e-06
3.31075e-06
6.35575e-06
1.79662e-06
6.01015e-06
3.47107e-07
5.46736e-06
-1.1162e-06
4.73479e-06
-2.58528e-06
3.80452e-06
-4.06112e-06
2.70548e-06
-5.59367e-06
1.39784e-06
-7.38189e-06
-1.50914e-07
-1.10308e-05
-9.10513e-07
-1.92928e-05
-2.32625e-05
5.80368e-07
1.50989e-06
1.76728e-06
5.61015e-06
3.11069e-06
8.21612e-06
4.46668e-06
9.27707e-06
5.73778e-06
9.26173e-06
6.82538e-06
8.51876e-06
7.66404e-06
7.34838e-06
8.2411e-06
5.98114e-06
8.5689e-06
4.57762e-06
8.6642e-06
3.21545e-06
8.53374e-06
1.92708e-06
8.17469e-06
7.06157e-07
7.54301e-06
-4.84518e-07
6.65603e-06
-1.6983e-06
5.50107e-06
-2.90617e-06
4.11913e-06
-4.21173e-06
2.58355e-06
-5.84631e-06
9.65502e-07
-9.41271e-06
-1.40552e-07
-1.81868e-05
-2.34031e-05
1.53721e-07
1.35617e-06
1.04632e-06
4.71755e-06
2.52922e-06
6.73322e-06
4.25731e-06
7.54898e-06
5.98532e-06
7.53371e-06
7.52556e-06
6.97852e-06
8.77534e-06
6.0986e-06
9.70487e-06
5.0516e-06
1.03092e-05
3.97325e-06
1.05999e-05
2.92476e-06
1.05829e-05
1.94412e-06
1.02637e-05
1.02533e-06
9.5965e-06
1.82699e-07
8.60313e-06
-7.04922e-07
7.27377e-06
-1.57681e-06
5.6604e-06
-2.59836e-06
3.92386e-06
-4.10976e-06
2.24767e-06
-7.73652e-06
6.55777e-07
-1.65949e-05
-2.27473e-05
-5.18654e-07
1.87482e-06
2.02965e-07
3.99593e-06
1.76506e-06
5.17112e-06
3.83623e-06
5.47781e-06
5.9995e-06
5.37045e-06
7.96802e-06
5.01e-06
9.60523e-06
4.4614e-06
1.08696e-05
3.78726e-06
1.17436e-05
3.09925e-06
1.22434e-05
2.4249e-06
1.23727e-05
1.81482e-06
1.21513e-05
1.24679e-06
1.1603e-05
7.30997e-07
1.06986e-05
1.99486e-07
9.44269e-06
-3.20933e-07
7.90856e-06
-1.06423e-06
6.28204e-06
-2.48324e-06
4.46422e-06
-5.91869e-06
2.05869e-06
-1.41893e-05
-2.06886e-05
-4.18099e-06
6.05582e-06
-3.64364e-06
3.45858e-06
-1.24458e-06
2.77206e-06
1.55996e-06
2.67327e-06
4.30636e-06
2.62405e-06
6.84776e-06
2.46859e-06
9.07064e-06
2.23852e-06
1.09146e-05
1.94327e-06
1.23612e-05
1.65265e-06
1.34374e-05
1.34868e-06
1.41603e-05
1.09194e-06
1.45746e-05
8.32511e-07
1.4668e-05
6.3761e-07
1.44496e-05
4.17881e-07
1.39148e-05
2.13833e-07
1.30795e-05
-2.28878e-07
1.19317e-05
-1.33544e-06
1.01156e-05
-4.10264e-06
5.63916e-06
-9.71287e-06
-1.50494e-05
6.05582e-06
9.51439e-06
1.22865e-05
1.49597e-05
1.75838e-05
2.00524e-05
2.22909e-05
2.42342e-05
2.58868e-05
2.72355e-05
2.83274e-05
2.91599e-05
2.97976e-05
3.02154e-05
3.04293e-05
3.02004e-05
2.8865e-05
2.47623e-05
1.50494e-05
)
;

boundaryField
{
    movingWall
    {
        type            calculated;
        value           uniform 0;
    }
    fixedWalls
    {
        type            calculated;
        value           uniform 0;
    }
    frontAndBack
    {
        type            empty;
        value           nonuniform List<scalar> 0();
    }
}


// ************************************************************************* //
