/*--------------------------------*- C++ -*----------------------------------*\
| =========                 |                                                 |
| \\      /  F ield         | OpenFOAM: The Open Source CFD Toolbox           |
|  \\    /   O peration     | Version:  2212                                  |
|   \\  /    A nd           | Website:  www.openfoam.com                      |
|    \\/     M anipulation  |                                                 |
\*---------------------------------------------------------------------------*/
FoamFile
{
    version     2.0;
    format      ascii;
    arch        "LSB;label=32;scalar=64";
    class       volVectorField;
    location    "6.5";
    object      U;
}
// * * * * * * * * * * * * * * * * * * * * * * * * * * * * * * * * * * * * * //

dimensions      [0 1 -1 0 0 0 0];

internalField   nonuniform List<vector> 
400
(
(0.00168018 -0.00168183 0)
(0.00483295 -0.00189004 0)
(0.00658165 -0.0011995 0)
(0.00566413 -0.000574325 0)
(0.00156245 0.00018469 0)
(-0.0068346 0.00173925 0)
(-0.0206047 0.00478323 0)
(-0.0395244 0.0087291 0)
(-0.0607813 0.0112849 0)
(-0.0791012 0.0105082 0)
(-0.0897788 0.00677494 0)
(-0.090439 0.00167305 0)
(-0.0802177 -0.00360976 0)
(-0.060003 -0.00826762 0)
(-0.0335461 -0.0108413 0)
(-0.00532804 -0.00979295 0)
(0.0166871 -0.00477801 0)
(0.0244432 0.00277023 0)
(0.0161671 0.00646625 0)
(0.0043147 0.00471424 0)
(0.00171708 -0.00505762 0)
(0.00315298 -0.00402442 0)
(-0.000430098 0.000591342 0)
(-0.0113396 0.00644069 0)
(-0.031424 0.0140432 0)
(-0.0611272 0.0237583 0)
(-0.0968 0.0330382 0)
(-0.131394 0.037069 0)
(-0.158896 0.0335015 0)
(-0.176026 0.0233968 0)
(-0.181379 0.00911628 0)
(-0.175019 -0.00697369 0)
(-0.157518 -0.023151 0)
(-0.129627 -0.0368892 0)
(-0.0936098 -0.0445448 0)
(-0.0522083 -0.0418282 0)
(-0.0114258 -0.0263397 0)
(0.0168611 -0.00129682 0)
(0.0178565 0.0162059 0)
(0.00553953 0.0148101 0)
(-0.000243045 -0.0057666 0)
(-0.00538795 0.000814152 0)
(-0.0196128 0.0142991 0)
(-0.0444935 0.0312205 0)
(-0.0803055 0.0494142 0)
(-0.12214 0.0642778 0)
(-0.16226 0.0705021 0)
(-0.195165 0.0659925 0)
(-0.218746 0.0521693 0)
(-0.23241 0.0315299 0)
(-0.236169 0.00643085 0)
(-0.230692 -0.0210824 0)
(-0.216292 -0.0488299 0)
(-0.192465 -0.0731792 0)
(-0.158949 -0.0889839 0)
(-0.11571 -0.0892021 0)
(-0.064556 -0.0670253 0)
(-0.013836 -0.0226893 0)
(0.00947124 0.0178893 0)
(0.00415509 0.0235638 0)
(-0.00347216 0.000469744 0)
(-0.0175111 0.0172481 0)
(-0.0434997 0.0414844 0)
(-0.0796414 0.0681538 0)
(-0.122887 0.0911013 0)
(-0.16575 0.103782 0)
(-0.201798 0.102842 0)
(-0.229103 0.0896238 0)
(-0.24793 0.0672977 0)
(-0.258878 0.0385746 0)
(-0.262787 0.00533776 0)
(-0.260462 -0.0310722 0)
(-0.251842 -0.0683914 0)
(-0.235881 -0.103669 0)
(-0.210592 -0.131418 0)
(-0.173272 -0.142833 0)
(-0.121358 -0.125736 0)
(-0.0568344 -0.0708613 0)
(-0.000995647 0.00353296 0)
(0.00474197 0.0282198 0)
(-0.00665949 0.0147936 0)
(-0.028714 0.0441032 0)
(-0.0632519 0.0770546 0)
(-0.104393 0.108852 0)
(-0.147181 0.131125 0)
(-0.184454 0.138111 0)
(-0.212772 0.129427 0)
(-0.232537 0.108686 0)
(-0.24504 0.0797598 0)
(-0.252007 0.045438 0)
(-0.255124 0.00726303 0)
(-0.255312 -0.0339432 0)
(-0.252346 -0.077003 0)
(-0.245683 -0.12059 0)
(-0.232511 -0.160722 0)
(-0.208214 -0.188942 0)
(-0.166743 -0.189916 0)
(-0.103408 -0.142853 0)
(-0.022184 -0.0388767 0)
(0.00737625 0.0270759 0)
(-0.00850442 0.0348699 0)
(-0.0351517 0.0766097 0)
(-0.0730395 0.114888 0)
(-0.11318 0.147609 0)
(-0.150414 0.165929 0)
(-0.179254 0.165867 0)
(-0.198758 0.149668 0)
(-0.210485 0.122428 0)
(-0.216416 0.0884939 0)
(-0.219033 0.0508522 0)
(-0.220296 0.0109765 0)
(-0.221201 -0.0306965 0)
(-0.221948 -0.0746253 0)
(-0.222645 -0.121173 0)
(-0.2211 -0.169111 0)
(-0.212225 -0.21295 0)
(-0.187933 -0.238496 0)
(-0.139623 -0.218477 0)
(-0.0628206 -0.118922 0)
(0.00583871 0.0141842 0)
(-0.00828491 0.0569836 0)
(-0.0353116 0.109958 0)
(-0.0717777 0.150406 0)
(-0.106989 0.181071 0)
(-0.1366 0.193755 0)
(-0.156985 0.186364 0)
(-0.168874 0.163212 0)
(-0.174388 0.130447 0)
(-0.175937 0.0928312 0)
(-0.176014 0.0533785 0)
(-0.176117 0.0133325 0)
(-0.176919 -0.0272395 0)
(-0.178968 -0.0694595 0)
(-0.182804 -0.114581 0)
(-0.187787 -0.163704 0)
(-0.190292 -0.215683 0)
(-0.182433 -0.261554 0)
(-0.154208 -0.275096 0)
(-0.0993497 -0.205855 0)
(-0.00890665 -0.0146384 0)
(-0.00612841 0.0775598 0)
(-0.029764 0.140486 0)
(-0.0613723 0.181119 0)
(-0.089818 0.208209 0)
(-0.111806 0.214791 0)
(-0.125324 0.200468 0)
(-0.13199 0.171247 0)
(-0.134115 0.134102 0)
(-0.134148 0.0940177 0)
(-0.134023 0.0537004 0)
(-0.134415 0.0138741 0)
(-0.135507 -0.0258095 0)
(-0.137753 -0.0663417 0)
(-0.141844 -0.108915 0)
(-0.148396 -0.155487 0)
(-0.156102 -0.208416 0)
(-0.158993 -0.265772 0)
(-0.146691 -0.308035 0)
(-0.112208 -0.277135 0)
(-0.0309472 -0.0753186 0)
(-0.00272528 0.0935611 0)
(-0.0203963 0.165556 0)
(-0.0451094 0.205491 0)
(-0.0662848 0.228459 0)
(-0.0815364 0.229413 0)
(-0.0900099 0.209429 0)
(-0.09362 0.175685 0)
(-0.0945051 0.135663 0)
(-0.0947549 0.0943483 0)
(-0.0955278 0.0539593 0)
(-0.0968641 0.0145936 0)
(-0.0986703 -0.0245032 0)
(-0.101115 -0.0640753 0)
(-0.104703 -0.104787 0)
(-0.110581 -0.148241 0)
(-0.119484 -0.198373 0)
(-0.128275 -0.259643 0)
(-0.126479 -0.323345 0)
(-0.107445 -0.334669 0)
(-0.0373324 -0.163369 0)
(0.00122031 0.102694 0)
(-0.00893028 0.18338 0)
(-0.0256168 0.22303 0)
(-0.0396016 0.242627 0)
(-0.0490685 0.239384 0)
(-0.0539282 0.215411 0)
(-0.0558799 0.17866 0)
(-0.0565715 0.136977 0)
(-0.0575117 0.0952545 0)
(-0.0592378 0.0551792 0)
(-0.0615207 0.016298 0)
(-0.0642167 -0.0224127 0)
(-0.0673176 -0.0615726 0)
(-0.0710034 -0.101394 0)
(-0.0762076 -0.142558 0)
(-0.0845015 -0.188704 0)
(-0.0960031 -0.248174 0)
(-0.10062 -0.324195 0)
(-0.095151 -0.372125 0)
(-0.0309148 -0.242493 0)
(0.00511424 0.103855 0)
(0.00295873 0.192969 0)
(-0.00537965 0.233514 0)
(-0.0124881 0.250649 0)
(-0.0168716 0.244556 0)
(-0.018751 0.218338 0)
(-0.0194291 0.180279 0)
(-0.0199456 0.138216 0)
(-0.0212336 0.0967929 0)
(-0.0234626 0.0573153 0)
(-0.0263465 0.019058 0)
(-0.0298256 -0.0190965 0)
(-0.0339164 -0.0578154 0)
(-0.0385597 -0.0971612 0)
(-0.0443033 -0.137063 0)
(-0.0523792 -0.179922 0)
(-0.0657175 -0.235441 0)
(-0.0742076 -0.317954 0)
(-0.0811888 -0.396621 0)
(-0.0229385 -0.307039 0)
(0.00844724 0.0973846 0)
(0.0142076 0.193958 0)
(0.0140919 0.237032 0)
(0.0136988 0.253425 0)
(0.0143223 0.246336 0)
(0.0155199 0.219626 0)
(0.0163807 0.18158 0)
(0.0164358 0.139879 0)
(0.0152974 0.098973 0)
(0.0130181 0.0601073 0)
(0.00984971 0.0225926 0)
(0.00574516 -0.0146916 0)
(0.000561548 -0.0525419 0)
(-0.00555494 -0.0910649 0)
(-0.013013 -0.129898 0)
(-0.0219589 -0.170053 0)
(-0.0377042 -0.220467 0)
(-0.0487379 -0.304307 0)
(-0.0679076 -0.408369 0)
(-0.0144606 -0.359919 0)
(0.0103132 0.0844206 0)
(0.0233908 0.186368 0)
(0.0310475 0.233159 0)
(0.0369713 0.249973 0)
(0.0426268 0.243123 0)
(0.0475749 0.217337 0)
(0.0510047 0.180579 0)
(0.0526719 0.140188 0)
(0.0525305 0.100459 0)
(0.0507913 0.0627062 0)
(0.0476759 0.0264187 0)
(0.0430703 -0.00946986 0)
(0.0368069 -0.0458609 0)
(0.0290064 -0.0829196 0)
(0.0188726 -0.120285 0)
(0.00756355 -0.158193 0)
(-0.0118382 -0.204174 0)
(-0.0242705 -0.286306 0)
(-0.0558602 -0.410882 0)
(-0.0061428 -0.401776 0)
(0.00986048 0.0671946 0)
(0.0289902 0.170575 0)
(0.0443007 0.22208 0)
(0.05683 0.24115 0)
(0.0681106 0.23621 0)
(0.0777842 0.212847 0)
(0.084991 0.17856 0)
(0.0894299 0.140236 0)
(0.0911782 0.102107 0)
(0.0905381 0.0657213 0)
(0.0878429 0.0309396 0)
(0.0827946 -0.00326131 0)
(0.0752912 -0.0374258 0)
(0.0656172 -0.0721372 0)
(0.0523941 -0.107205 0)
(0.0374884 -0.142518 0)
(0.013075 -0.184015 0)
(2.95845e-05 -0.263076 0)
(-0.0448239 -0.406596 0)
(0.00275686 -0.436172 0)
(0.00691677 0.0493857 0)
(0.02932 0.148879 0)
(0.0510445 0.20351 0)
(0.0699034 0.2244 0)
(0.0873609 0.22153 0)
(0.103036 0.201371 0)
(0.115687 0.170784 0)
(0.124631 0.135911 0)
(0.129781 0.100743 0)
(0.131384 0.0669597 0)
(0.129707 0.0348089 0)
(0.124782 0.00346327 0)
(0.116161 -0.0273671 0)
(0.104448 -0.0585453 0)
(0.0873873 -0.090119 0)
(0.0682318 -0.122703 0)
(0.0382077 -0.160627 0)
(0.0237995 -0.236995 0)
(-0.0344727 -0.398861 0)
(0.0134618 -0.464356 0)
(0.00238201 0.0346392 0)
(0.0236022 0.123846 0)
(0.0508872 0.179846 0)
(0.0765924 0.202813 0)
(0.101233 0.202487 0)
(0.124091 0.186084 0)
(0.14352 0.160035 0)
(0.158303 0.12962 0)
(0.168025 0.0984541 0)
(0.172895 0.0682256 0)
(0.172857 0.0395299 0)
(0.168625 0.0119591 0)
(0.158799 -0.0148357 0)
(0.145085 -0.0415907 0)
(0.123817 -0.0685919 0)
(0.100315 -0.0973664 0)
(0.064507 -0.132521 0)
(0.0469418 -0.207328 0)
(-0.0227431 -0.387014 0)
(0.0285142 -0.485511 0)
(-0.00342299 0.0286441 0)
(0.0100448 0.101482 0)
(0.0370487 0.148623 0)
(0.0688825 0.169357 0)
(0.101747 0.170562 0)
(0.133437 0.158268 0)
(0.161406 0.13784 0)
(0.183923 0.113451 0)
(0.199946 0.0881862 0)
(0.209848 0.0635743 0)
(0.212759 0.04036 0)
(0.210498 0.0184219 0)
(0.200244 -0.00261508 0)
(0.185632 -0.0232156 0)
(0.160852 -0.043853 0)
(0.134277 -0.0675985 0)
(0.0927988 -0.101549 0)
(0.0698127 -0.179909 0)
(-0.00440309 -0.370009 0)
(0.0521436 -0.491619 0)
(-0.0139917 0.0185469 0)
(-0.0075129 0.088183 0)
(0.0191824 0.124159 0)
(0.056379 0.137255 0)
(0.0974949 0.136829 0)
(0.13784 0.127641 0)
(0.174057 0.112987 0)
(0.203868 0.0952178 0)
(0.225736 0.0767613 0)
(0.240805 0.0586329 0)
(0.246828 0.0417864 0)
(0.247738 0.0261187 0)
(0.238413 0.0117843 0)
(0.226614 -0.00198517 0)
(0.201653 -0.0160059 0)
(0.177717 -0.0349344 0)
(0.133425 -0.0677141 0)
(0.107775 -0.145951 0)
(0.0374435 -0.326114 0)
(0.0923557 -0.45587 0)
(-0.106005 0.0824388 0)
(-0.0777464 0.0690093 0)
(-0.0485702 0.0733582 0)
(0.00374957 0.0778585 0)
(0.0572292 0.0781802 0)
(0.109924 0.0739111 0)
(0.157057 0.0665773 0)
(0.199386 0.0571784 0)
(0.231471 0.0475128 0)
(0.259602 0.0378682 0)
(0.275321 0.0292158 0)
(0.290474 0.0212433 0)
(0.29084 0.0144998 0)
(0.29497 0.00812609 0)
(0.278706 0.00116739 0)
(0.271529 -0.00997092 0)
(0.232258 -0.0355318 0)
(0.218106 -0.0954038 0)
(0.150202 -0.229723 0)
(0.170671 -0.34146 0)
(0.129977 0.10375 0)
(0.158337 0.0752427 0)
(0.212192 0.0532448 0)
(0.2707 0.0416366 0)
(0.323265 0.0359221 0)
(0.375687 0.0319533 0)
(0.42026 0.0289186 0)
(0.465555 0.0255819 0)
(0.498631 0.0229043 0)
(0.533866 0.019713 0)
(0.553296 0.017552 0)
(0.579106 0.0146159 0)
(0.58525 0.0131732 0)
(0.603603 0.0103559 0)
(0.595044 0.0093947 0)
(0.603568 0.00500973 0)
(0.567782 9.70704e-05 0)
(0.547627 -0.0183115 0)
(0.435715 -0.0504147 0)
(0.336765 -0.101388 0)
)
;

boundaryField
{
    movingWall
    {
        type            fixedValue;
        value           uniform (1 0 0);
    }
    fixedWalls
    {
        type            noSlip;
    }
    frontAndBack
    {
        type            empty;
    }
}


// ************************************************************************* //
