/*--------------------------------*- C++ -*----------------------------------*\
| =========                 |                                                 |
| \\      /  F ield         | OpenFOAM: The Open Source CFD Toolbox           |
|  \\    /   O peration     | Version:  2212                                  |
|   \\  /    A nd           | Website:  www.openfoam.com                      |
|    \\/     M anipulation  |                                                 |
\*---------------------------------------------------------------------------*/
FoamFile
{
    version     2.0;
    format      ascii;
    arch        "LSB;label=32;scalar=64";
    class       volScalarField;
    location    "11.6";
    object      p;
}
// * * * * * * * * * * * * * * * * * * * * * * * * * * * * * * * * * * * * * //

dimensions      [0 2 -2 0 0 0 0];

internalField   nonuniform List<scalar> 
400
(
4.47345e-07
-0.000150551
-0.000534633
-0.00107184
-0.00173256
-0.00249404
-0.00318517
-0.00359774
-0.00356552
-0.00293425
-0.00154869
0.000619268
0.00324949
0.005514
0.00653369
0.00592282
0.00400202
0.00214959
0.00111059
0.00104153
0.000116335
-5.80805e-05
-0.000377027
-0.000764203
-0.00124412
-0.00188825
-0.00270637
-0.0035437
-0.00408019
-0.00393861
-0.00284661
-0.000825014
0.00168925
0.00396083
0.00512463
0.00474303
0.00310293
0.00137469
0.000593098
0.00068414
0.000536454
0.000264983
-7.73098e-05
-0.000559669
-0.00134738
-0.00258078
-0.00421935
-0.00598402
-0.00740282
-0.00794415
-0.00726445
-0.00546223
-0.00289185
-0.000194825
0.0017916
0.00242761
0.00170869
0.000501993
-0.000396198
-0.000392911
0.00115197
0.000741279
0.000191889
-0.000774849
-0.00245125
-0.00493804
-0.00799542
-0.0111208
-0.0137037
-0.0151772
-0.0152071
-0.0138402
-0.0112939
-0.00802933
-0.00475251
-0.00221001
-0.000870686
-0.000706525
-0.00128914
-0.00191846
0.00158336
0.000973757
-2.28718e-05
-0.00192417
-0.00500684
-0.00918034
-0.013914
-0.0184801
-0.0222165
-0.0246532
-0.0255288
-0.0247231
-0.0223636
-0.0187437
-0.0143048
-0.00965596
-0.0055924
-0.00294921
-0.00219357
-0.00401829
0.00129341
0.000445067
-0.00119736
-0.0043045
-0.00900523
-0.0148809
-0.021073
-0.0267155
-0.0311915
-0.0341788
-0.0355455
-0.0351896
-0.0331969
-0.0297187
-0.0248995
-0.0189611
-0.0125055
-0.00694863
-0.00440119
-0.00652449
-4.82646e-05
-0.00114752
-0.00349948
-0.00779697
-0.0139328
-0.0211146
-0.0282364
-0.0344079
-0.0391288
-0.0422321
-0.0437199
-0.0436105
-0.0419727
-0.0388787
-0.0343108
-0.0281572
-0.0205391
-0.012703
-0.00785505
-0.00774825
-0.00245044
-0.00374216
-0.00669863
-0.0119135
-0.0190401
-0.0269821
-0.0345043
-0.0407793
-0.0454509
-0.0484771
-0.0499398
-0.049931
-0.0485303
-0.0457883
-0.0416623
-0.0359266
-0.0283256
-0.0193711
-0.0118225
-0.00798078
-0.00553761
-0.00691521
-0.0102637
-0.016022
-0.0236583
-0.0318897
-0.0394515
-0.0456131
-0.0501375
-0.0530576
-0.0544867
-0.0545268
-0.0532526
-0.0507257
-0.046962
-0.041812
-0.0348678
-0.0259477
-0.0167093
-0.00999472
-0.00873373
-0.0100859
-0.0135977
-0.0195423
-0.0272865
-0.0354872
-0.0429122
-0.0489098
-0.0533095
-0.0561674
-0.0575913
-0.0576626
-0.0564441
-0.054011
-0.050451
-0.0457604
-0.039634
-0.031524
-0.0223213
-0.01434
-0.0115041
-0.0127579
-0.0162193
-0.0220543
-0.0296071
-0.0375887
-0.0448265
-0.0506992
-0.0550426
-0.057894
-0.0593363
-0.0594279
-0.0582186
-0.0557887
-0.0522866
-0.0478522
-0.042431
-0.0353826
-0.027198
-0.0191794
-0.0135493
-0.0146186
-0.0178558
-0.0233154
-0.0304309
-0.0380627
-0.0451176
-0.0509495
-0.0553288
-0.0582402
-0.0597278
-0.0598302
-0.0585882
-0.0560828
-0.0525153
-0.0481379
-0.0432067
-0.0370562
-0.0300319
-0.0224172
-0.0148373
-0.0155678
-0.0183517
-0.0232101
-0.0296932
-0.0368786
-0.0437644
-0.0496398
-0.0541545
-0.0572006
-0.0587696
-0.0588767
-0.0575574
-0.0549155
-0.0511768
-0.0466556
-0.0419652
-0.0363
-0.030226
-0.0228958
-0.0154676
-0.0157219
-0.0177771
-0.0217461
-0.0273894
-0.0340313
-0.0407501
-0.0467401
-0.0514924
-0.0547677
-0.0564816
-0.0566226
-0.055201
-0.0523524
-0.0483457
-0.0435814
-0.0387304
-0.0331412
-0.0280995
-0.0202791
-0.0155742
-0.015298
-0.0163378
-0.0190875
-0.0236528
-0.0296338
-0.0361712
-0.0423354
-0.0474271
-0.0510389
-0.0529796
-0.0531829
-0.0516904
-0.0485909
-0.0442263
-0.0390535
-0.0337816
-0.0280714
-0.0242314
-0.0143848
-0.0152766
-0.0145499
-0.0142606
-0.0154257
-0.0186846
-0.0238943
-0.030231
-0.0366143
-0.0421373
-0.0462007
-0.0484888
-0.0488658
-0.0473526
-0.0440204
-0.0392485
-0.0335186
-0.027641
-0.0216292
-0.0180534
-0.00383285
-0.0146618
-0.013618
-0.0117067
-0.0110809
-0.0129534
-0.01738
-0.0235337
-0.0301701
-0.0361929
-0.0408111
-0.0435782
-0.0442612
-0.0428502
-0.039376
-0.0341849
-0.0276895
-0.0206821
-0.0132761
-0.00678577
0.0160529
-0.014583
-0.012657
-0.00864831
-0.00623448
-0.00690993
-0.0107457
-0.0168177
-0.0237397
-0.0302983
-0.0355389
-0.0389032
-0.0400346
-0.0388772
-0.0354477
-0.0298956
-0.0222757
-0.0128726
-0.000688201
0.016695
0.0570638
-0.0117944
-0.0118305
-0.00572598
-0.00177493
-0.0017649
-0.00540462
-0.011575
-0.0188147
-0.0258753
-0.0316871
-0.0356619
-0.0373615
-0.0366849
-0.033355
-0.027224
-0.0175414
-0.00314825
0.0204902
0.0607042
0.129821
-0.0295167
-0.0106296
-0.000608757
0.00308089
0.00244831
-0.00155692
-0.00799932
-0.0155532
-0.0229759
-0.0291735
-0.0335315
-0.0355876
-0.0352008
-0.0319555
-0.0252274
-0.0128599
0.00942262
0.0511714
0.122878
0.226076
)
;

boundaryField
{
    movingWall
    {
        type            zeroGradient;
    }
    fixedWalls
    {
        type            zeroGradient;
    }
    frontAndBack
    {
        type            empty;
    }
}


// ************************************************************************* //
