/*--------------------------------*- C++ -*----------------------------------*\
| =========                 |                                                 |
| \\      /  F ield         | OpenFOAM: The Open Source CFD Toolbox           |
|  \\    /   O peration     | Version:  2212                                  |
|   \\  /    A nd           | Website:  www.openfoam.com                      |
|    \\/     M anipulation  |                                                 |
\*---------------------------------------------------------------------------*/
FoamFile
{
    version     2.0;
    format      ascii;
    arch        "LSB;label=32;scalar=64";
    class       surfaceScalarField;
    location    "11.6";
    object      phi;
}
// * * * * * * * * * * * * * * * * * * * * * * * * * * * * * * * * * * * * * //

dimensions      [0 3 -1 0 0 0 0];

oriented        oriented;

internalField   nonuniform List<scalar> 
760
(
1.56086e-07
-1.56126e-07
2.93633e-07
-1.37547e-07
3.09997e-07
-1.63642e-08
1.83688e-07
1.2631e-07
-1.20302e-07
3.0399e-07
-6.65926e-07
5.45624e-07
-1.48528e-06
8.19349e-07
-2.49087e-06
1.0056e-06
-3.48036e-06
9.89488e-07
-4.22036e-06
7.39996e-07
-4.54398e-06
3.23625e-07
-4.35365e-06
-1.90329e-07
-3.59375e-06
-7.599e-07
-2.37897e-06
-1.21478e-06
-9.39998e-07
-1.43898e-06
3.47773e-07
-1.28777e-06
1.08996e-06
-7.42183e-07
1.03309e-06
5.68665e-08
4.60999e-07
5.72091e-07
4.60999e-07
1.25052e-07
-2.81178e-07
7.46154e-08
-8.71101e-08
-2.9702e-07
3.55271e-07
-1.07891e-06
9.08197e-07
-2.31595e-06
1.54103e-06
-3.92743e-06
2.15711e-06
-5.66235e-06
2.55427e-06
-7.20708e-06
2.55033e-06
-8.33699e-06
2.11939e-06
-8.94233e-06
1.34534e-06
-8.97625e-06
3.57543e-07
-8.41624e-06
-7.5034e-07
-7.29365e-06
-1.88249e-06
-5.64204e-06
-2.86639e-06
-3.60581e-06
-3.47521e-06
-1.49022e-06
-3.40336e-06
1.78746e-07
-2.41115e-06
8.59e-07
-6.23388e-07
5.25713e-07
9.05378e-07
9.86712e-07
-1.27597e-07
-1.53581e-07
-6.33929e-07
4.19222e-07
-1.62494e-06
1.34628e-06
-3.14151e-06
2.42476e-06
-5.05759e-06
3.45711e-06
-7.07346e-06
4.17298e-06
-8.87357e-06
4.35437e-06
-1.02778e-05
3.9546e-06
-1.12346e-05
3.07618e-06
-1.17362e-05
1.8469e-06
-1.17302e-05
3.51583e-07
-1.12713e-05
-1.20926e-06
-1.03386e-05
-2.8152e-06
-8.87791e-06
-4.32706e-06
-6.86962e-06
-5.48349e-06
-4.40324e-06
-5.86975e-06
-1.87874e-06
-4.93565e-06
-8.63917e-08
-2.41574e-06
2.94694e-07
5.24293e-07
1.28141e-06
-5.00533e-07
3.46952e-07
-1.56002e-06
1.4787e-06
-3.11955e-06
2.90582e-06
-5.08149e-06
4.3867e-06
-7.18542e-06
5.56104e-06
-9.12345e-06
6.11101e-06
-1.06933e-05
5.92424e-06
-1.18525e-05
5.11382e-06
-1.26292e-05
3.85281e-06
-1.30578e-05
2.27555e-06
-1.31229e-05
4.16627e-07
-1.28834e-05
-1.44878e-06
-1.23005e-05
-3.39804e-06
-1.12726e-05
-5.35499e-06
-9.66887e-06
-7.08721e-06
-7.36471e-06
-8.17391e-06
-4.3988e-06
-7.90155e-06
-1.37807e-06
-5.43647e-06
1.20738e-07
-9.74513e-07
1.40214e-06
-8.61968e-07
1.20892e-06
-2.36178e-06
2.97851e-06
-4.23291e-06
4.77696e-06
-6.28033e-06
6.43412e-06
-8.22279e-06
7.5035e-06
-9.83757e-06
7.72579e-06
-1.1048e-05
7.13468e-06
-1.18807e-05
5.94646e-06
-1.23973e-05
4.36943e-06
-1.26705e-05
2.54876e-06
-1.27911e-05
5.37214e-07
-1.27454e-05
-1.49443e-06
-1.25247e-05
-3.61872e-06
-1.20501e-05
-5.8296e-06
-1.11354e-05
-8.00195e-06
-9.49261e-06
-9.81669e-06
-6.82231e-06
-1.05719e-05
-3.22303e-06
-9.03575e-06
-2.61166e-07
-3.93638e-06
1.14098e-06
-1.08714e-06
2.29606e-06
-2.78473e-06
4.6761e-06
-4.6786e-06
6.67083e-06
-6.53673e-06
8.29225e-06
-8.13478e-06
9.10155e-06
-9.34173e-06
8.93275e-06
-1.01536e-05
7.94654e-06
-1.06355e-05
6.42835e-06
-1.08776e-05
4.61154e-06
-1.09796e-05
2.65075e-06
-1.10628e-05
6.20425e-07
-1.11133e-05
-1.4439e-06
-1.11474e-05
-3.58461e-06
-1.11363e-05
-5.84077e-06
-1.09265e-05
-8.2117e-06
-1.01913e-05
-1.05519e-05
-8.43616e-06
-1.23269e-05
-5.24511e-06
-1.22268e-05
-1.15868e-06
-8.02281e-06
-1.76999e-08
-1.11126e-06
3.40732e-06
-2.75943e-06
6.32427e-06
-4.45748e-06
8.36888e-06
-5.99359e-06
9.82836e-06
-7.20765e-06
1.03156e-05
-8.03736e-06
9.76245e-06
-8.52049e-06
8.42967e-06
-8.74402e-06
6.65189e-06
-8.81141e-06
4.67893e-06
-8.81935e-06
2.65868e-06
-8.84991e-06
6.50983e-07
-8.92125e-06
-1.37256e-06
-9.05333e-06
-3.45253e-06
-9.25783e-06
-5.63627e-06
-9.47878e-06
-7.99075e-06
-9.48543e-06
-1.05453e-05
-8.75912e-06
-1.30533e-05
-6.54132e-06
-1.44446e-05
-2.42499e-06
-1.21391e-05
-2.44269e-06
-9.36644e-07
4.34396e-06
-2.34903e-06
7.73666e-06
-3.73703e-06
9.75687e-06
-4.91712e-06
1.10085e-05
-5.78836e-06
1.11869e-05
-6.33398e-06
1.03081e-05
-6.61118e-06
8.70687e-06
-6.71096e-06
6.75166e-06
-6.72912e-06
4.6971e-06
-6.73836e-06
2.66792e-06
-6.774e-06
6.86619e-07
-6.8528e-06
-1.29375e-06
-6.9957e-06
-3.30963e-06
-7.23333e-06
-5.39864e-06
-7.58332e-06
-7.64076e-06
-7.9557e-06
-1.01729e-05
-7.94145e-06
-1.30675e-05
-6.72261e-06
-1.56634e-05
-3.58988e-06
-1.52719e-05
-6.03257e-06
-6.26075e-07
4.97004e-06
-1.68978e-06
8.80037e-06
-2.72405e-06
1.07911e-05
-3.56428e-06
1.18487e-05
-4.15497e-06
1.17775e-05
-4.50631e-06
1.06594e-05
-4.67724e-06
8.8778e-06
-4.74609e-06
6.82051e-06
-4.78494e-06
4.73595e-06
-4.83698e-06
2.71997e-06
-4.91204e-06
7.6167e-07
-5.01624e-06
-1.18954e-06
-5.15935e-06
-3.16652e-06
-5.36989e-06
-5.1881e-06
-5.70302e-06
-7.30762e-06
-6.17297e-06
-9.70297e-06
-6.56306e-06
-1.26774e-05
-6.13297e-06
-1.60935e-05
-3.92713e-06
-1.74777e-05
-9.9597e-06
-2.33279e-07
5.20332e-06
-8.95045e-07
9.46213e-06
-1.56762e-06
1.14637e-05
-2.09817e-06
1.23792e-05
-2.45908e-06
1.21384e-05
-2.67463e-06
1.0875e-05
-2.79304e-06
8.99621e-06
-2.86751e-06
6.89497e-06
-2.94246e-06
4.8109e-06
-3.03971e-06
2.81722e-06
-3.16195e-06
8.83916e-07
-3.30867e-06
-1.04283e-06
-3.47988e-06
-2.99531e-06
-3.68762e-06
-4.98036e-06
-3.98222e-06
-7.01303e-06
-4.44614e-06
-9.23905e-06
-5.02808e-06
-1.20955e-05
-5.12738e-06
-1.59942e-05
-3.56077e-06
-1.90443e-05
-1.35205e-05
1.63764e-07
5.03955e-06
-7.04639e-08
9.69636e-06
-4.03945e-07
1.17972e-05
-6.55488e-07
1.26308e-05
-8.1103e-07
1.2294e-05
-9.01713e-07
1.09657e-05
-9.66892e-07
9.06139e-06
-1.03842e-06
6.96649e-06
-1.13282e-06
4.90531e-06
-1.25787e-06
2.94227e-06
-1.41613e-06
1.04218e-06
-1.60973e-06
-8.49224e-07
-1.83709e-06
-2.76795e-06
-2.09581e-06
-4.72164e-06
-2.41305e-06
-6.69578e-06
-2.88018e-06
-8.77192e-06
-3.56277e-06
-1.14129e-05
-4.02716e-06
-1.55298e-05
-3.02688e-06
-2.00446e-05
-1.65473e-05
5.0249e-07
4.53706e-06
7.00732e-07
9.49812e-06
7.44133e-07
1.17538e-05
7.79883e-07
1.2595e-05
8.24845e-07
1.2249e-05
8.53717e-07
1.09368e-05
8.46868e-07
9.06824e-06
7.96114e-07
7.01725e-06
7.02249e-07
4.99917e-06
5.6696e-07
3.07756e-06
3.85008e-07
1.22413e-06
1.50204e-07
-6.1442e-07
-1.38988e-07
-2.47876e-06
-4.89207e-07
-4.37142e-06
-9.03955e-07
-6.28103e-06
-1.42657e-06
-8.2493e-06
-2.20456e-06
-1.06349e-05
-2.95402e-06
-1.47804e-05
-2.46097e-06
-2.05377e-05
-1.90083e-05
7.59804e-07
3.77726e-06
1.35961e-06
8.89832e-06
1.75411e-06
1.13593e-05
2.08519e-06
1.22639e-05
2.35974e-06
1.19745e-05
2.54766e-06
1.07489e-05
2.64087e-06
8.97503e-06
2.65008e-06
7.00804e-06
2.58923e-06
5.06002e-06
2.46465e-06
3.20214e-06
2.26865e-06
1.42012e-06
1.98716e-06
-3.32923e-07
1.62085e-06
-2.11245e-06
1.16485e-06
-3.91542e-06
6.14942e-07
-5.73113e-06
-7.99356e-08
-7.55443e-06
-9.53683e-07
-9.76114e-06
-1.91682e-06
-1.38172e-05
-1.92414e-06
-2.05303e-05
-2.09324e-05
8.75569e-07
2.90169e-06
1.81909e-06
7.9548e-06
2.56417e-06
1.06142e-05
3.20828e-06
1.16198e-05
3.7589e-06
1.14239e-05
4.17283e-06
1.03349e-05
4.43428e-06
8.71358e-06
4.55718e-06
6.88513e-06
4.56433e-06
5.05287e-06
4.47067e-06
3.29581e-06
4.27394e-06
1.61685e-06
3.94148e-06
-4.60239e-10
3.49411e-06
-1.66508e-06
2.90619e-06
-3.3275e-06
2.17904e-06
-5.00398e-06
1.33186e-06
-6.70725e-06
2.74367e-07
-8.70365e-06
-9.53125e-07
-1.25898e-05
-1.42487e-06
-2.00586e-05
-2.23573e-05
8.1145e-07
2.09024e-06
1.96507e-06
6.80118e-06
3.01275e-06
9.56653e-06
3.99085e-06
1.06418e-05
4.87245e-06
1.05423e-05
5.59158e-06
9.6158e-06
6.10915e-06
8.19602e-06
6.42808e-06
6.5662e-06
6.56906e-06
4.91189e-06
6.54989e-06
3.31498e-06
6.36866e-06
1.79808e-06
6.02268e-06
3.45524e-07
5.47886e-06
-1.12126e-06
4.74475e-06
-2.59339e-06
3.81255e-06
-4.07177e-06
2.71133e-06
-5.60603e-06
1.40177e-06
-7.39409e-06
-1.489e-07
-1.10391e-05
-9.09018e-07
-1.92985e-05
-2.32663e-05
5.81467e-07
1.50877e-06
1.77031e-06
5.61233e-06
3.11551e-06
8.22133e-06
4.47324e-06
9.28402e-06
5.746e-06
9.26949e-06
6.8352e-06
8.52661e-06
7.67542e-06
7.3558e-06
8.25395e-06
5.98767e-06
8.58302e-06
4.58281e-06
8.67919e-06
3.21881e-06
8.54905e-06
1.92822e-06
8.18968e-06
7.04896e-07
7.55693e-06
-4.88506e-07
6.66827e-06
-1.70474e-06
5.51111e-06
-2.91461e-06
4.12649e-06
-4.22141e-06
2.58856e-06
-5.85615e-06
9.69122e-07
-9.41965e-06
-1.38901e-07
-1.81905e-05
-2.34052e-05
1.54339e-07
1.35443e-06
1.04872e-06
4.71796e-06
2.53357e-06
6.73648e-06
4.2637e-06
7.55389e-06
5.99374e-06
7.53945e-06
7.53591e-06
6.98444e-06
8.7875e-06
6.1042e-06
9.71869e-06
5.05648e-06
1.03245e-05
3.97703e-06
1.06161e-05
2.92716e-06
1.05995e-05
1.9448e-06
1.02802e-05
1.02423e-06
9.6117e-06
1.79996e-07
8.61672e-06
-7.09756e-07
7.28497e-06
-1.58286e-06
5.6687e-06
-2.60514e-06
3.92916e-06
-4.11662e-06
2.25073e-06
-7.74122e-06
6.5694e-07
-1.65967e-05
-2.27483e-05
-5.19157e-07
1.87359e-06
2.03735e-07
3.99507e-06
1.76793e-06
5.17228e-06
3.84155e-06
5.48028e-06
6.00733e-06
5.37367e-06
7.97821e-06
5.01355e-06
9.61758e-06
4.46483e-06
1.08838e-05
3.79026e-06
1.17593e-05
3.10151e-06
1.22602e-05
2.42628e-06
1.23898e-05
1.81517e-06
1.21679e-05
1.24616e-06
1.16187e-05
7.29199e-07
1.07124e-05
1.96528e-07
9.45383e-06
-3.24266e-07
7.91676e-06
-1.06807e-06
6.28712e-06
-2.48698e-06
4.46684e-06
-5.92095e-06
2.05977e-06
-1.41896e-05
-2.06885e-05
-4.18158e-06
6.05517e-06
-3.64417e-06
3.45765e-06
-1.2438e-06
2.77191e-06
1.5627e-06
2.67378e-06
4.31132e-06
2.62505e-06
6.85497e-06
2.4699e-06
9.07994e-06
2.23987e-06
1.09257e-05
1.9445e-06
1.23736e-05
1.65358e-06
1.34506e-05
1.34927e-06
1.41737e-05
1.0921e-06
1.45876e-05
8.32243e-07
1.46799e-05
6.36882e-07
1.44596e-05
4.16882e-07
1.39227e-05
2.12638e-07
1.30851e-05
-2.30508e-07
1.19347e-05
-1.33661e-06
1.01167e-05
-4.10292e-06
5.6396e-06
-9.71247e-06
-1.50489e-05
6.05517e-06
9.51282e-06
1.22847e-05
1.49585e-05
1.75836e-05
2.00535e-05
2.22933e-05
2.42378e-05
2.58914e-05
2.72407e-05
2.83328e-05
2.9165e-05
2.98019e-05
3.02188e-05
3.04314e-05
3.02009e-05
2.88643e-05
2.47614e-05
1.50489e-05
)
;

boundaryField
{
    movingWall
    {
        type            calculated;
        value           uniform 0;
    }
    fixedWalls
    {
        type            calculated;
        value           uniform 0;
    }
    frontAndBack
    {
        type            empty;
        value           nonuniform List<scalar> 0();
    }
}


// ************************************************************************* //
