/*--------------------------------*- C++ -*----------------------------------*\
| =========                 |                                                 |
| \\      /  F ield         | OpenFOAM: The Open Source CFD Toolbox           |
|  \\    /   O peration     | Version:  2212                                  |
|   \\  /    A nd           | Website:  www.openfoam.com                      |
|    \\/     M anipulation  |                                                 |
\*---------------------------------------------------------------------------*/
FoamFile
{
    version     2.0;
    format      ascii;
    arch        "LSB;label=32;scalar=64";
    class       volScalarField;
    location    "11.6";
    object      T;
}
// * * * * * * * * * * * * * * * * * * * * * * * * * * * * * * * * * * * * * //

dimensions      [0 0 0 1 0 0 0];

internalField   nonuniform List<scalar> 
400
(
0.923496
0.925208
0.92869
0.933833
0.939804
0.945213
0.949049
0.951244
0.952407
0.95319
0.953898
0.954626
0.9554
0.956194
0.956883
0.957259
0.956985
0.955698
0.953589
0.951861
0.925705
0.927802
0.932
0.937995
0.944306
0.948917
0.951147
0.951924
0.952199
0.952405
0.952807
0.953559
0.954712
0.956199
0.957717
0.958798
0.958728
0.956964
0.954219
0.952236
0.929157
0.931961
0.937161
0.943408
0.948304
0.95038
0.950355
0.949461
0.94833
0.947473
0.947336
0.948228
0.950163
0.953077
0.956442
0.959474
0.960868
0.959315
0.955376
0.952929
0.932535
0.936068
0.941728
0.946798
0.948998
0.948172
0.945656
0.94244
0.939253
0.936897
0.935978
0.937008
0.939861
0.944599
0.950573
0.956846
0.961682
0.962781
0.958393
0.954571
0.935137
0.939095
0.944332
0.947226
0.946313
0.942418
0.936958
0.93093
0.925415
0.921392
0.919575
0.92056
0.924188
0.930593
0.939199
0.949079
0.958489
0.964719
0.963844
0.957635
0.936864
0.940817
0.944927
0.945202
0.941114
0.934077
0.925547
0.916778
0.909136
0.903652
0.901048
0.901798
0.905888
0.913395
0.923949
0.936764
0.950328
0.962119
0.967933
0.962131
0.937845
0.941406
0.943993
0.941642
0.934618
0.924683
0.913422
0.902421
0.893199
0.886754
0.883683
0.884226
0.888459
0.896416
0.907965
0.922632
0.939203
0.955369
0.967402
0.968573
0.938288
0.941267
0.942333
0.937694
0.928161
0.915758
0.902317
0.889712
0.879503
0.87258
0.869331
0.869792
0.873975
0.881879
0.893547
0.908946
0.927431
0.946936
0.963621
0.972029
0.938364
0.940713
0.940448
0.933998
0.922527
0.908286
0.893327
0.879695
0.86893
0.861785
0.858467
0.858894
0.862985
0.870651
0.881923
0.897091
0.916356
0.938368
0.958763
0.970513
0.938208
0.940029
0.938856
0.931282
0.918567
0.903113
0.887161
0.872872
0.861742
0.854409
0.850961
0.851292
0.855282
0.862749
0.873546
0.88796
0.906936
0.930449
0.954376
0.96937
0.937897
0.939342
0.937664
0.929565
0.91626
0.900251
0.883887
0.86932
0.857975
0.85042
0.846723
0.846814
0.850596
0.857849
0.868229
0.881746
0.899689
0.923591
0.950295
0.96864
0.937475
0.938732
0.93703
0.929144
0.916019
0.900128
0.883849
0.869278
0.857789
0.849965
0.845921
0.845628
0.84902
0.855882
0.865764
0.878324
0.894772
0.918174
0.94703
0.968243
0.936937
0.938166
0.936758
0.929615
0.917311
0.902178
0.886544
0.872398
0.861057
0.853128
0.848783
0.848027
0.850837
0.857014
0.866104
0.877564
0.892192
0.914207
0.944452
0.9682
0.936247
0.937606
0.936819
0.931002
0.920258
0.906603
0.892217
0.878947
0.868046
0.860163
0.855551
0.854218
0.856216
0.861353
0.869231
0.879236
0.891824
0.911901
0.942787
0.968445
0.935338
0.936916
0.93674
0.932364
0.923564
0.911952
0.899456
0.887706
0.877826
0.870437
0.865841
0.864033
0.865103
0.868901
0.875116
0.883328
0.893741
0.911228
0.941919
0.968986
0.934256
0.936121
0.936733
0.934027
0.927588
0.918556
0.908499
0.898774
0.890348
0.883776
0.879357
0.877137
0.877139
0.879329
0.883519
0.889509
0.897564
0.911935
0.94189
0.969838
0.933185
0.935014
0.935863
0.93435
0.930075
0.923778
0.916549
0.909391
0.903006
0.897832
0.89406
0.891801
0.890981
0.891686
0.893906
0.897609
0.903547
0.915188
0.943638
0.971288
0.932427
0.934591
0.936035
0.935522
0.933169
0.92941
0.924884
0.920203
0.915811
0.912042
0.909017
0.906876
0.905606
0.905286
0.906121
0.908028
0.912404
0.921366
0.946915
0.973116
0.922368
0.932455
0.932534
0.932292
0.931037
0.929318
0.927332
0.925477
0.923768
0.922509
0.921589
0.921178
0.921215
0.921666
0.92287
0.924407
0.928337
0.935179
0.95458
0.976248
0.945454
0.952066
0.955619
0.957764
0.958927
0.959667
0.960067
0.96047
0.960759
0.961194
0.961579
0.962149
0.962678
0.963391
0.964076
0.965023
0.966225
0.968754
0.973783
0.982659
)
;

boundaryField
{
    movingWall
    {
        type            fixedValue;
        value           uniform 1;
    }
    fixedWalls
    {
        type            zeroGradient;
    }
    frontAndBack
    {
        type            empty;
    }
}


// ************************************************************************* //
