/*--------------------------------*- C++ -*----------------------------------*\
| =========                 |                                                 |
| \\      /  F ield         | OpenFOAM: The Open Source CFD Toolbox           |
|  \\    /   O peration     | Version:  2212                                  |
|   \\  /    A nd           | Website:  www.openfoam.com                      |
|    \\/     M anipulation  |                                                 |
\*---------------------------------------------------------------------------*/
FoamFile
{
    version     2.0;
    format      ascii;
    arch        "LSB;label=32;scalar=64";
    class       surfaceScalarField;
    location    "3.5";
    object      phi;
}
// * * * * * * * * * * * * * * * * * * * * * * * * * * * * * * * * * * * * * //

dimensions      [0 3 -1 0 0 0 0];

oriented        oriented;

internalField   nonuniform List<scalar> 
760
(
1.50721e-07
-1.50722e-07
2.8223e-07
-1.31509e-07
2.96121e-07
-1.38916e-08
1.70459e-07
1.25663e-07
-1.29542e-07
3.00001e-07
-6.65865e-07
5.36323e-07
-1.46983e-06
8.03967e-07
-2.4579e-06
9.88071e-07
-3.43382e-06
9.7592e-07
-4.16856e-06
7.34734e-07
-4.49532e-06
3.26768e-07
-4.31757e-06
-1.77756e-07
-3.57629e-06
-7.41274e-07
-2.38266e-06
-1.19364e-06
-9.62879e-07
-1.41978e-06
3.12819e-07
-1.2757e-06
1.05676e-06
-7.43943e-07
1.0125e-06
4.42616e-08
4.53601e-07
5.58899e-07
4.53601e-07
1.16158e-07
-2.6688e-07
5.9097e-08
-7.44473e-08
-3.09939e-07
3.55145e-07
-1.07913e-06
8.94851e-07
-2.29335e-06
1.51423e-06
-3.87603e-06
2.119e-06
-5.58476e-06
2.5127e-06
-7.1125e-06
2.51581e-06
-8.23531e-06
2.09873e-06
-8.84197e-06
1.34139e-06
-8.88454e-06
3.69337e-07
-8.33919e-06
-7.23106e-07
-7.23682e-06
-1.84365e-06
-5.60896e-06
-2.82149e-06
-3.59702e-06
-3.43172e-06
-1.50163e-06
-3.37109e-06
1.5413e-07
-2.39971e-06
8.38073e-07
-6.39681e-07
5.17019e-07
8.79954e-07
9.7062e-07
-1.33362e-07
-1.33518e-07
-6.37219e-07
4.2941e-07
-1.61289e-06
1.33081e-06
-3.10157e-06
2.38354e-06
-4.98405e-06
3.3967e-06
-6.97041e-06
4.10537e-06
-8.75038e-06
4.29267e-06
-1.01428e-05
3.90823e-06
-1.10938e-05
3.0497e-06
-1.15949e-05
1.84253e-06
-1.15971e-05
3.7151e-07
-1.11489e-05
-1.17127e-06
-1.02325e-05
-2.7601e-06
-8.79337e-06
-4.26058e-06
-6.81077e-06
-5.41432e-06
-4.37218e-06
-5.80967e-06
-1.87223e-06
-4.89965e-06
-9.3809e-08
-2.41811e-06
2.90959e-07
4.95186e-07
1.26158e-06
-4.95855e-07
3.62337e-07
-1.54019e-06
1.47374e-06
-3.0719e-06
2.86252e-06
-4.99949e-06
4.31113e-06
-7.07177e-06
5.46897e-06
-8.98679e-06
6.02039e-06
-1.05422e-05
5.84804e-06
-1.16921e-05
5.05817e-06
-1.24634e-05
3.82098e-06
-1.28908e-05
2.26994e-06
-1.29613e-05
4.42012e-07
-1.273e-05
-1.40257e-06
-1.21606e-05
-3.32951e-06
-1.11511e-05
-5.27003e-06
-9.57041e-06
-6.99506e-06
-7.29389e-06
-8.08619e-06
-4.35988e-06
-7.83366e-06
-1.3713e-06
-5.40668e-06
1.17459e-07
-9.93577e-07
1.37904e-06
-8.46756e-07
1.20909e-06
-2.3194e-06
2.94639e-06
-4.15689e-06
4.70001e-06
-6.1717e-06
6.32594e-06
-8.08926e-06
7.38654e-06
-9.68782e-06
7.61895e-06
-1.08875e-05
7.04769e-06
-1.17123e-05
5.88298e-06
-1.22237e-05
4.33236e-06
-1.24948e-05
2.54111e-06
-1.26157e-05
5.62925e-07
-1.25771e-05
-1.44122e-06
-1.23684e-05
-3.53819e-06
-1.19096e-05
-5.72882e-06
-1.10138e-05
-7.89086e-06
-9.3936e-06
-9.7064e-06
-6.75296e-06
-1.04743e-05
-3.19269e-06
-8.96695e-06
-2.62311e-07
-3.92395e-06
1.11673e-06
-1.06349e-06
2.27258e-06
-2.72866e-06
4.61156e-06
-4.58955e-06
6.5609e-06
-6.42042e-06
8.15682e-06
-7.99975e-06
8.96586e-06
-9.19446e-06
8.81366e-06
-9.99662e-06
7.84986e-06
-1.04695e-05
6.35582e-06
-1.07033e-05
4.56614e-06
-1.07991e-05
2.63699e-06
-1.08792e-05
6.42973e-07
-1.09356e-05
-1.3848e-06
-1.0982e-05
-3.49175e-06
-1.09879e-05
-5.72296e-06
-1.07971e-05
-8.08162e-06
-1.00809e-05
-1.04226e-05
-8.34731e-06
-1.22079e-05
-5.18727e-06
-1.2127e-05
-1.14818e-06
-7.96304e-06
-3.14561e-08
-1.08436e-06
3.35694e-06
-2.70023e-06
6.22743e-06
-4.36974e-06
8.2304e-06
-5.88379e-06
9.67087e-06
-7.08291e-06
1.0165e-05
-7.90139e-06
9.63214e-06
-8.37317e-06
8.32164e-06
-8.5837e-06
6.56636e-06
-8.63715e-06
4.61958e-06
-8.63307e-06
2.63292e-06
-8.65755e-06
6.67449e-07
-8.73236e-06
-1.30999e-06
-8.87715e-06
-3.34695e-06
-9.10235e-06
-5.49776e-06
-9.34758e-06
-7.83639e-06
-9.37663e-06
-1.03936e-05
-8.66822e-06
-1.29163e-05
-6.47156e-06
-1.43237e-05
-2.39563e-06
-1.2039e-05
-2.42709e-06
-9.12157e-07
4.2691e-06
-2.29623e-06
7.6115e-06
-3.66094e-06
9.59511e-06
-4.82339e-06
1.08333e-05
-5.68166e-06
1.10232e-05
-6.21559e-06
1.01661e-05
-6.47922e-06
8.58526e-06
-6.56256e-06
6.6497e-06
-6.56325e-06
4.62028e-06
-6.55739e-06
2.62705e-06
-6.58434e-06
6.94398e-07
-6.66312e-06
-1.23121e-06
-6.81618e-06
-3.19389e-06
-7.07447e-06
-5.23947e-06
-7.45289e-06
-7.45797e-06
-7.8543e-06
-9.99216e-06
-7.862e-06
-1.29086e-05
-6.65866e-06
-1.5527e-05
-3.54441e-06
-1.51532e-05
-5.9715e-06
-6.07947e-07
4.87704e-06
-1.64952e-06
8.65307e-06
-2.66604e-06
1.06116e-05
-3.49246e-06
1.16597e-05
-4.07188e-06
1.16027e-05
-4.41193e-06
1.05061e-05
-4.5694e-06
8.74274e-06
-4.62246e-06
6.70276e-06
-4.64501e-06
4.64282e-06
-4.68325e-06
2.6653e-06
-4.74907e-06
7.60215e-07
-4.85023e-06
-1.13005e-06
-4.99813e-06
-3.04599e-06
-5.22322e-06
-5.01438e-06
-5.58134e-06
-7.09985e-06
-6.08239e-06
-9.49111e-06
-6.49841e-06
-1.24926e-05
-6.08249e-06
-1.59429e-05
-3.89051e-06
-1.73452e-05
-9.86201e-06
-2.24675e-07
5.10172e-06
-8.71753e-07
9.30015e-06
-1.53229e-06
1.12722e-05
-2.05315e-06
1.21806e-05
-2.40529e-06
1.19548e-05
-2.61162e-06
1.07125e-05
-2.71955e-06
8.85067e-06
-2.78241e-06
6.76562e-06
-2.84603e-06
4.70644e-06
-2.93358e-06
2.75285e-06
-3.04807e-06
8.74704e-07
-3.1897e-06
-9.88417e-07
-3.35979e-06
-2.8759e-06
-3.57273e-06
-4.80145e-06
-3.88308e-06
-6.7895e-06
-4.37294e-06
-9.00124e-06
-4.98135e-06
-1.18842e-05
-5.09543e-06
-1.58288e-05
-3.53904e-06
-1.89016e-05
-1.3401e-05
1.61187e-07
4.94053e-06
-6.61768e-08
9.52752e-06
-3.93156e-07
1.15991e-05
-6.39395e-07
1.24268e-05
-7.89863e-07
1.21053e-05
-8.75142e-07
1.07977e-05
-9.3484e-07
8.91037e-06
-1.00117e-06
6.83195e-06
-1.09093e-06
4.7962e-06
-1.2115e-06
2.87342e-06
-1.36455e-06
1.02775e-06
-1.55205e-06
-8.0091e-07
-1.77345e-06
-2.65451e-06
-2.0287e-06
-4.5462e-06
-2.34902e-06
-6.46918e-06
-2.83159e-06
-8.51866e-06
-3.53553e-06
-1.11803e-05
-4.01227e-06
-1.53521e-05
-3.01698e-06
-1.98969e-05
-1.6418e-05
4.89119e-07
4.45141e-06
6.83888e-07
9.33275e-06
7.26841e-07
1.15562e-05
7.63272e-07
1.23904e-05
8.09773e-07
1.20588e-05
8.39995e-07
1.07675e-05
8.33188e-07
8.91717e-06
7.80885e-07
6.88425e-06
6.85532e-07
4.89155e-06
5.50049e-07
3.0089e-06
3.70882e-07
1.20692e-06
1.42109e-07
-5.72137e-07
-1.39056e-07
-2.37334e-06
-4.79438e-07
-4.20581e-06
-8.86589e-07
-6.06203e-06
-1.41112e-06
-7.99413e-06
-2.20073e-06
-1.03907e-05
-2.95737e-06
-1.45955e-05
-2.46289e-06
-2.03914e-05
-1.88809e-05
7.36051e-07
3.71536e-06
1.32234e-06
8.74646e-06
1.70918e-06
1.11694e-05
2.03555e-06
1.2064e-05
2.30768e-06
1.17866e-05
2.49312e-06
1.05821e-05
2.58182e-06
8.82848e-06
2.58441e-06
6.88166e-06
2.51644e-06
4.95952e-06
2.38745e-06
3.13789e-06
2.19223e-06
1.40214e-06
1.91731e-06
-2.97218e-07
1.56125e-06
-2.01728e-06
1.11878e-06
-3.76334e-06
5.83643e-07
-5.5269e-06
-1.00005e-07
-7.31048e-06
-9.75222e-07
-9.51544e-06
-1.93941e-06
-1.36313e-05
-1.93478e-06
-2.0396e-05
-2.08157e-05
8.45441e-07
2.86992e-06
1.76493e-06
7.82696e-06
2.49434e-06
1.044e-05
3.12756e-06
1.14308e-05
3.67042e-06
1.12438e-05
4.07748e-06
1.0175e-05
4.33067e-06
8.57528e-06
4.44361e-06
6.76872e-06
4.44084e-06
4.96229e-06
4.33975e-06
3.23899e-06
4.14008e-06
1.60181e-06
3.81667e-06
2.61926e-08
3.37941e-06
-1.58003e-06
2.80811e-06
-3.19203e-06
2.10147e-06
-4.82026e-06
1.27409e-06
-6.4831e-06
2.30756e-07
-8.47211e-06
-9.89693e-07
-1.24108e-05
-1.44214e-06
-1.99435e-05
-2.22578e-05
7.81321e-07
2.0886e-06
1.90108e-06
6.70721e-06
2.92463e-06
9.4164e-06
3.88495e-06
1.04705e-05
4.75277e-06
1.03759e-05
5.46021e-06
9.46758e-06
5.96607e-06
8.06942e-06
6.27256e-06
6.46224e-06
6.40183e-06
4.83302e-06
6.37436e-06
3.26645e-06
6.19155e-06
1.78463e-06
5.8468e-06
3.70936e-07
5.31588e-06
-1.04911e-06
4.60057e-06
-2.47672e-06
3.69313e-06
-3.91282e-06
2.62139e-06
-5.41136e-06
1.33867e-06
-7.18939e-06
-1.82978e-07
-1.08892e-05
-9.34324e-07
-1.91922e-05
-2.31922e-05
5.58248e-07
1.53035e-06
1.70779e-06
5.55767e-06
3.01968e-06
8.1045e-06
4.34922e-06
9.14097e-06
5.59922e-06
9.12596e-06
6.66988e-06
8.39691e-06
7.49398e-06
7.24532e-06
8.05768e-06
5.89854e-06
8.37389e-06
4.51682e-06
8.46121e-06
3.17913e-06
8.32759e-06
1.91824e-06
7.9721e-06
7.26433e-07
7.35223e-06
-4.29244e-07
6.48445e-06
-1.60894e-06
5.35605e-06
-2.78443e-06
4.00879e-06
-4.06409e-06
2.50525e-06
-5.68585e-06
9.0698e-07
-9.2909e-06
-1.67766e-07
-1.81175e-05
-2.33599e-05
1.40824e-07
1.38953e-06
9.97461e-07
4.70103e-06
2.44364e-06
6.65832e-06
4.13677e-06
7.44784e-06
5.83482e-06
7.42791e-06
7.35079e-06
6.88094e-06
8.58045e-06
6.01565e-06
9.49304e-06
4.98595e-06
1.00833e-05
3.92652e-06
1.03645e-05
2.89797e-06
1.0343e-05
1.93977e-06
1.00258e-05
1.04364e-06
9.37416e-06
2.2235e-07
8.40012e-06
-6.34895e-07
7.10164e-06
-1.48595e-06
5.52817e-06
-2.49062e-06
3.83593e-06
-3.99361e-06
2.1953e-06
-7.65027e-06
6.35549e-07
-1.65577e-05
-2.27244e-05
-5.09384e-07
1.89891e-06
1.83463e-07
4.00818e-06
1.70124e-06
5.14055e-06
3.72552e-06
5.42356e-06
5.8462e-06
5.30723e-06
7.77986e-06
4.94729e-06
9.38864e-06
4.40687e-06
1.06307e-05
3.74385e-06
1.14877e-05
3.0696e-06
1.19771e-05
2.40851e-06
1.21041e-05
1.81284e-06
1.18896e-05
1.25806e-06
1.13534e-05
7.586e-07
1.04745e-05
2.44e-07
9.25739e-06
-2.68845e-07
7.7677e-06
-1.00093e-06
6.19157e-06
-2.41749e-06
4.41582e-06
-5.87452e-06
2.03859e-06
-1.41805e-05
-2.06858e-05
-4.17096e-06
6.06987e-06
-3.63944e-06
3.47667e-06
-1.27047e-06
2.77157e-06
1.49351e-06
2.65958e-06
4.1985e-06
2.60224e-06
6.70203e-06
2.44376e-06
8.89356e-06
2.21534e-06
1.07135e-05
1.92391e-06
1.21441e-05
1.63899e-06
1.3212e-05
1.3406e-06
1.39344e-05
1.09043e-06
1.43555e-05
8.36964e-07
1.44653e-05
6.48884e-07
1.42759e-05
4.33309e-07
1.3774e-05
2.33103e-07
1.29739e-05
-2.00851e-07
1.18702e-05
-1.31376e-06
1.0091e-05
-4.09532e-06
5.62912e-06
-9.7186e-06
-1.50567e-05
6.06987e-06
9.54653e-06
1.23181e-05
1.49777e-05
1.75799e-05
2.00237e-05
2.2239e-05
2.41629e-05
2.58019e-05
2.71425e-05
2.82329e-05
2.90699e-05
2.97188e-05
3.01521e-05
3.03852e-05
3.01844e-05
2.88706e-05
2.47753e-05
1.50567e-05
)
;

boundaryField
{
    movingWall
    {
        type            calculated;
        value           uniform 0;
    }
    fixedWalls
    {
        type            calculated;
        value           uniform 0;
    }
    frontAndBack
    {
        type            empty;
        value           nonuniform List<scalar> 0();
    }
}


// ************************************************************************* //
