/*--------------------------------*- C++ -*----------------------------------*\
| =========                 |                                                 |
| \\      /  F ield         | OpenFOAM: The Open Source CFD Toolbox           |
|  \\    /   O peration     | Version:  2212                                  |
|   \\  /    A nd           | Website:  www.openfoam.com                      |
|    \\/     M anipulation  |                                                 |
\*---------------------------------------------------------------------------*/
FoamFile
{
    version     2.0;
    format      ascii;
    arch        "LSB;label=32;scalar=64";
    class       volScalarField;
    location    "9.6";
    object      p;
}
// * * * * * * * * * * * * * * * * * * * * * * * * * * * * * * * * * * * * * //

dimensions      [0 2 -2 0 0 0 0];

internalField   nonuniform List<scalar> 
400
(
4.79075e-07
-0.000150511
-0.000534577
-0.00107176
-0.00173247
-0.00249392
-0.00318502
-0.00359758
-0.00356535
-0.00293409
-0.00154857
0.000619339
0.00324953
0.00551408
0.00653387
0.00592317
0.00400251
0.00215017
0.00111118
0.00104211
0.000116374
-5.80354e-05
-0.000376968
-0.000764132
-0.00124404
-0.00188815
-0.00270623
-0.00354352
-0.00407998
-0.00393839
-0.00284642
-0.000824881
0.00168935
0.00396095
0.00512486
0.00474342
0.00310348
0.00137528
0.000593692
0.000684718
0.000536475
0.00026502
-7.72589e-05
-0.000559603
-0.00134728
-0.00258062
-0.0042191
-0.00598368
-0.00740239
-0.00794368
-0.00726401
-0.00546185
-0.00289153
-0.000194523
0.00179195
0.00242808
0.00170927
0.000502623
-0.000395569
-0.000392309
0.00115195
0.000741279
0.000191918
-0.000774773
-0.00245108
-0.00493772
-0.00799491
-0.0111201
-0.0137028
-0.0151763
-0.0152062
-0.0138393
-0.0112931
-0.00802864
-0.00475188
-0.00220939
-0.000870059
-0.000705887
-0.00128849
-0.00191783
0.00158327
0.000973702
-2.28605e-05
-0.00192403
-0.0050065
-0.00917972
-0.0139131
-0.0184788
-0.0222149
-0.0246515
-0.0255271
-0.0247214
-0.0223621
-0.0187424
-0.0143037
-0.00965504
-0.00559162
-0.00294854
-0.00219295
-0.00401762
0.00129328
0.000444981
-0.00119732
-0.00430423
-0.00900462
-0.0148798
-0.0210715
-0.0267136
-0.0311891
-0.0341762
-0.0355428
-0.0351869
-0.0331945
-0.0297166
-0.0248977
-0.0189597
-0.0125044
-0.00694782
-0.00440052
-0.00652374
-4.8395e-05
-0.00114758
-0.00349935
-0.00779648
-0.0139318
-0.0211131
-0.0282343
-0.0344052
-0.0391256
-0.0422286
-0.0437161
-0.0436068
-0.0419693
-0.0388757
-0.0343083
-0.0281552
-0.0205376
-0.012702
-0.00785427
-0.00774758
-0.00245049
-0.00374211
-0.00669833
-0.0119127
-0.0190387
-0.02698
-0.0345015
-0.0407758
-0.0454468
-0.0484725
-0.049935
-0.0499263
-0.0485259
-0.0457844
-0.041659
-0.035924
-0.0283236
-0.0193697
-0.0118215
-0.00798013
-0.0055375
-0.00691498
-0.0102632
-0.016021
-0.0236565
-0.0318871
-0.039448
-0.0456088
-0.0501325
-0.0530521
-0.0544809
-0.0545211
-0.0532472
-0.0507208
-0.0469579
-0.0418087
-0.0348653
-0.0259459
-0.016708
-0.0099939
-0.00873345
-0.0100855
-0.0135969
-0.0195409
-0.0272844
-0.0354842
-0.0429083
-0.048905
-0.0533039
-0.0561612
-0.0575848
-0.057656
-0.0564379
-0.0540055
-0.0504463
-0.0457565
-0.039631
-0.0315218
-0.0223197
-0.0143388
-0.0115036
-0.0127573
-0.0162183
-0.0220528
-0.0296047
-0.0375853
-0.0448222
-0.050694
-0.0550366
-0.0578873
-0.0593293
-0.0594208
-0.0582119
-0.0557827
-0.0522815
-0.047848
-0.0424278
-0.0353801
-0.0271961
-0.0191779
-0.0135488
-0.014618
-0.0178548
-0.0233138
-0.0304284
-0.0380593
-0.0451132
-0.0509442
-0.0553226
-0.0582333
-0.0597206
-0.059823
-0.0585813
-0.0560766
-0.0525101
-0.0481337
-0.0432034
-0.0370538
-0.03003
-0.0224156
-0.0148367
-0.0155671
-0.0183507
-0.0232085
-0.0296908
-0.0368754
-0.0437602
-0.0496347
-0.0541485
-0.0571939
-0.0587626
-0.0588697
-0.0575508
-0.0549096
-0.0511719
-0.0466517
-0.0419623
-0.0362978
-0.0302243
-0.0228944
-0.0154671
-0.0157213
-0.0177762
-0.0217447
-0.0273874
-0.0340284
-0.0407464
-0.0467354
-0.0514869
-0.0547616
-0.0564752
-0.0566162
-0.055195
-0.0523471
-0.0483413
-0.0435781
-0.0387281
-0.0331396
-0.0280982
-0.0202781
-0.0155737
-0.0152975
-0.0163372
-0.0190865
-0.0236512
-0.0296315
-0.036168
-0.0423314
-0.0474224
-0.0510336
-0.0529739
-0.0531773
-0.0516852
-0.0485864
-0.0442227
-0.039051
-0.0337801
-0.0280706
-0.0242308
-0.0143845
-0.0152762
-0.0145495
-0.0142601
-0.0154251
-0.0186835
-0.0238927
-0.0302287
-0.0366112
-0.0421335
-0.0461962
-0.0484841
-0.0488611
-0.0473483
-0.0440168
-0.0392459
-0.0335171
-0.0276405
-0.0216293
-0.0180538
-0.00383336
-0.0146615
-0.0136177
-0.0117065
-0.0110806
-0.012953
-0.0173791
-0.0235322
-0.0301678
-0.0361899
-0.0408075
-0.0435743
-0.0442574
-0.0428467
-0.0393733
-0.0341832
-0.0276889
-0.0206825
-0.0132772
-0.0067873
0.0160516
-0.0145828
-0.0126568
-0.00864833
-0.00623466
-0.00691003
-0.0107454
-0.0168168
-0.0237382
-0.0302961
-0.0355362
-0.0389002
-0.0400316
-0.0388745
-0.0354457
-0.0298945
-0.0222757
-0.0128737
-0.00069018
0.0166926
0.0570619
-0.0117944
-0.0118305
-0.00572625
-0.00177544
-0.00176542
-0.00540486
-0.0115747
-0.0188138
-0.0258736
-0.031685
-0.0356594
-0.0373589
-0.0366826
-0.0333534
-0.0272233
-0.0175418
-0.00314978
0.0204878
0.0607016
0.129819
-0.0295165
-0.0106297
-0.00060918
0.00308022
0.00244762
-0.00155736
-0.00799926
-0.0155524
-0.0229745
-0.0291715
-0.0335292
-0.0355852
-0.0351986
-0.0319539
-0.0252267
-0.0128602
0.00942121
0.0511692
0.122875
0.226074
)
;

boundaryField
{
    movingWall
    {
        type            zeroGradient;
    }
    fixedWalls
    {
        type            zeroGradient;
    }
    frontAndBack
    {
        type            empty;
    }
}


// ************************************************************************* //
