/*--------------------------------*- C++ -*----------------------------------*\
| =========                 |                                                 |
| \\      /  F ield         | OpenFOAM: The Open Source CFD Toolbox           |
|  \\    /   O peration     | Version:  2212                                  |
|   \\  /    A nd           | Website:  www.openfoam.com                      |
|    \\/     M anipulation  |                                                 |
\*---------------------------------------------------------------------------*/
FoamFile
{
    version     2.0;
    format      ascii;
    arch        "LSB;label=32;scalar=64";
    class       surfaceScalarField;
    location    "9.6";
    object      phi;
}
// * * * * * * * * * * * * * * * * * * * * * * * * * * * * * * * * * * * * * //

dimensions      [0 3 -1 0 0 0 0];

oriented        oriented;

internalField   nonuniform List<scalar> 
760
(
1.56076e-07
-1.56119e-07
2.93612e-07
-1.37537e-07
3.09972e-07
-1.63594e-08
1.83662e-07
1.26309e-07
-1.20322e-07
3.03984e-07
-6.65929e-07
5.45608e-07
-1.48525e-06
8.19321e-07
-2.49081e-06
1.00556e-06
-3.48028e-06
9.89463e-07
-4.22027e-06
7.39989e-07
-4.5439e-06
3.23637e-07
-4.35361e-06
-1.90297e-07
-3.59375e-06
-7.59855e-07
-2.37902e-06
-1.21473e-06
-9.40082e-07
-1.43894e-06
3.47673e-07
-1.28775e-06
1.08987e-06
-7.42201e-07
1.03304e-06
5.68295e-08
4.60984e-07
5.72061e-07
4.60984e-07
1.25035e-07
-2.81154e-07
7.45848e-08
-8.70864e-08
-2.97049e-07
3.55274e-07
-1.07892e-06
9.08177e-07
-2.31592e-06
1.54098e-06
-3.92735e-06
2.15704e-06
-5.66221e-06
2.55418e-06
-7.2069e-06
2.55026e-06
-8.33679e-06
2.11935e-06
-8.94214e-06
1.34534e-06
-8.97608e-06
3.57574e-07
-8.4161e-06
-7.50272e-07
-7.29356e-06
-1.88239e-06
-5.64201e-06
-2.86629e-06
-3.60583e-06
-3.47511e-06
-1.49028e-06
-3.40331e-06
1.7867e-07
-2.41115e-06
8.58946e-07
-6.23447e-07
5.25692e-07
9.05314e-07
9.86677e-07
-1.27611e-07
-1.53543e-07
-6.33943e-07
4.19246e-07
-1.62493e-06
1.34626e-06
-3.14145e-06
2.42469e-06
-5.05746e-06
3.45699e-06
-7.07326e-06
4.17284e-06
-8.87331e-06
4.35423e-06
-1.02775e-05
3.95449e-06
-1.12343e-05
3.07611e-06
-1.17358e-05
1.84688e-06
-1.17299e-05
3.5163e-07
-1.1271e-05
-1.20917e-06
-1.03383e-05
-2.81506e-06
-8.87773e-06
-4.32689e-06
-6.86951e-06
-5.48333e-06
-4.40319e-06
-5.86963e-06
-1.87875e-06
-4.93559e-06
-8.64203e-08
-2.41578e-06
2.94682e-07
5.24211e-07
1.28136e-06
-5.00529e-07
3.46986e-07
-1.55999e-06
1.4787e-06
-3.11948e-06
2.90575e-06
-5.08134e-06
4.38656e-06
-7.18519e-06
5.56084e-06
-9.12314e-06
6.1108e-06
-1.0693e-05
5.92405e-06
-1.18521e-05
5.11367e-06
-1.26287e-05
3.85271e-06
-1.30574e-05
2.27552e-06
-1.31224e-05
4.16685e-07
-1.28829e-05
-1.44866e-06
-1.23002e-05
-3.39785e-06
-1.12723e-05
-5.35476e-06
-9.66863e-06
-7.08698e-06
-7.36455e-06
-8.1737e-06
-4.39873e-06
-7.90141e-06
-1.37807e-06
-5.43643e-06
1.20726e-07
-9.74583e-07
1.40209e-06
-8.61942e-07
1.20893e-06
-2.3617e-06
2.97846e-06
-4.23276e-06
4.77682e-06
-6.2801e-06
6.43389e-06
-8.22248e-06
7.50322e-06
-9.8372e-06
7.72552e-06
-1.10476e-05
7.13443e-06
-1.18802e-05
5.94626e-06
-1.23968e-05
4.3693e-06
-1.267e-05
2.54871e-06
-1.27905e-05
5.3727e-07
-1.27449e-05
-1.49429e-06
-1.25243e-05
-3.61849e-06
-1.20497e-05
-5.82931e-06
-1.11351e-05
-8.00165e-06
-9.49235e-06
-9.81641e-06
-6.82214e-06
-1.05716e-05
-3.22297e-06
-9.03561e-06
-2.61176e-07
-3.93638e-06
1.14091e-06
-1.08709e-06
2.29602e-06
-2.78462e-06
4.67599e-06
-4.6784e-06
6.6706e-06
-6.53646e-06
8.29194e-06
-8.13443e-06
9.1012e-06
-9.34132e-06
8.93241e-06
-1.01531e-05
7.94623e-06
-1.0635e-05
6.4281e-06
-1.0877e-05
4.61136e-06
-1.0979e-05
2.65067e-06
-1.10622e-05
6.2047e-07
-1.11127e-05
-1.44373e-06
-1.11469e-05
-3.58433e-06
-1.11358e-05
-5.84042e-06
-1.09261e-05
-8.21132e-06
-1.01909e-05
-1.05516e-05
-8.43592e-06
-1.23266e-05
-5.24496e-06
-1.22266e-05
-1.15866e-06
-8.02268e-06
-1.77487e-08
-1.1112e-06
3.40722e-06
-2.75929e-06
6.32408e-06
-4.45727e-06
8.36857e-06
-5.9933e-06
9.82798e-06
-7.2073e-06
1.03152e-05
-8.03694e-06
9.76205e-06
-8.52001e-06
8.4293e-06
-8.74348e-06
6.65157e-06
-8.8108e-06
4.67869e-06
-8.81869e-06
2.65856e-06
-8.84923e-06
6.51009e-07
-8.92059e-06
-1.37237e-06
-9.05273e-06
-3.45219e-06
-9.25731e-06
-5.63584e-06
-9.47836e-06
-7.99028e-06
-9.4851e-06
-1.05448e-05
-8.75885e-06
-1.30529e-05
-6.54112e-06
-1.44443e-05
-2.42491e-06
-1.21389e-05
-2.44266e-06
-9.36586e-07
4.34381e-06
-2.34891e-06
7.7364e-06
-3.73683e-06
9.7565e-06
-4.91685e-06
1.1008e-05
-5.78804e-06
1.11864e-05
-6.3336e-06
1.03076e-05
-6.61073e-06
8.70643e-06
-6.71042e-06
6.75126e-06
-6.72851e-06
4.69678e-06
-6.73769e-06
2.66774e-06
-6.7733e-06
6.86617e-07
-6.85212e-06
-1.29356e-06
-6.99506e-06
-3.30925e-06
-7.23278e-06
-5.39812e-06
-7.58288e-06
-7.64018e-06
-7.95537e-06
-1.01724e-05
-7.9412e-06
-1.30671e-05
-6.72243e-06
-1.56631e-05
-3.58976e-06
-1.52716e-05
-6.03242e-06
-6.26027e-07
4.96984e-06
-1.68967e-06
8.80004e-06
-2.72389e-06
1.07907e-05
-3.56406e-06
1.18482e-05
-4.1547e-06
1.1777e-05
-4.50598e-06
1.06589e-05
-4.67685e-06
8.8773e-06
-4.74562e-06
6.82004e-06
-4.7844e-06
4.73557e-06
-4.8364e-06
2.71973e-06
-4.91142e-06
7.61637e-07
-5.01562e-06
-1.18935e-06
-5.15877e-06
-3.16611e-06
-5.36937e-06
-5.18751e-06
-5.70261e-06
-7.30694e-06
-6.17267e-06
-9.7023e-06
-6.56285e-06
-1.26769e-05
-6.13281e-06
-1.60931e-05
-3.92702e-06
-1.74774e-05
-9.95944e-06
-2.33253e-07
5.20309e-06
-8.94977e-07
9.46176e-06
-1.56751e-06
1.14632e-05
-2.09803e-06
1.23787e-05
-2.45889e-06
1.21379e-05
-2.6744e-06
1.08744e-05
-2.79276e-06
8.99566e-06
-2.86717e-06
6.89444e-06
-2.94207e-06
4.81047e-06
-3.03928e-06
2.81694e-06
-3.1615e-06
8.83857e-07
-3.30821e-06
-1.04264e-06
-3.47943e-06
-2.99489e-06
-3.6872e-06
-4.97973e-06
-3.98187e-06
-7.01227e-06
-4.44589e-06
-9.23828e-06
-5.02793e-06
-1.20948e-05
-5.12728e-06
-1.59938e-05
-3.5607e-06
-1.90439e-05
-1.35201e-05
1.63762e-07
5.03933e-06
-7.04454e-08
9.69597e-06
-4.03905e-07
1.17967e-05
-6.55428e-07
1.26302e-05
-8.10948e-07
1.22934e-05
-9.01605e-07
1.09651e-05
-9.66758e-07
9.06081e-06
-1.03826e-06
6.96594e-06
-1.13264e-06
4.90485e-06
-1.25766e-06
2.94197e-06
-1.4159e-06
1.0421e-06
-1.60949e-06
-8.49055e-07
-1.83683e-06
-2.76754e-06
-2.09555e-06
-4.72101e-06
-2.41282e-06
-6.695e-06
-2.88001e-06
-8.77109e-06
-3.56268e-06
-1.14122e-05
-4.02711e-06
-1.55293e-05
-3.02685e-06
-2.00442e-05
-1.6547e-05
5.02462e-07
4.53687e-06
7.00697e-07
9.49774e-06
7.44096e-07
1.17533e-05
7.79846e-07
1.25945e-05
8.2481e-07
1.22484e-05
8.53684e-07
1.09362e-05
8.46835e-07
9.06766e-06
7.96076e-07
7.0167e-06
7.02208e-07
4.99872e-06
5.6692e-07
3.07726e-06
3.8498e-07
1.22404e-06
1.50196e-07
-6.1427e-07
-1.38972e-07
-2.47837e-06
-4.89161e-07
-4.37082e-06
-9.0389e-07
-6.28027e-06
-1.42652e-06
-8.24846e-06
-2.20455e-06
-1.06341e-05
-2.95403e-06
-1.47798e-05
-2.46097e-06
-2.05373e-05
-1.9008e-05
7.59749e-07
3.77712e-06
1.35952e-06
8.89797e-06
1.75399e-06
1.13588e-05
2.08505e-06
1.22634e-05
2.35959e-06
1.19739e-05
2.54748e-06
1.07483e-05
2.64067e-06
8.97447e-06
2.64985e-06
7.00752e-06
2.58897e-06
5.05959e-06
2.46437e-06
3.20186e-06
2.26838e-06
1.42003e-06
1.98691e-06
-3.32799e-07
1.62064e-06
-2.1121e-06
1.16469e-06
-3.91487e-06
6.14835e-07
-5.73042e-06
-8.00023e-08
-7.55363e-06
-9.53751e-07
-9.76038e-06
-1.91688e-06
-1.38167e-05
-1.92417e-06
-2.053e-05
-2.09321e-05
8.75497e-07
2.90162e-06
1.81895e-06
7.95451e-06
2.56399e-06
1.06138e-05
3.20805e-06
1.16193e-05
3.75863e-06
1.14233e-05
4.17252e-06
1.03344e-05
4.43392e-06
8.71307e-06
4.55678e-06
6.88466e-06
4.56388e-06
5.05249e-06
4.47019e-06
3.29555e-06
4.27346e-06
1.61676e-06
3.94102e-06
-3.62981e-10
3.49369e-06
-1.66477e-06
2.90585e-06
-3.32702e-06
2.17877e-06
-5.00335e-06
1.33167e-06
-6.70652e-06
2.74229e-07
-8.70294e-06
-9.53236e-07
-1.25892e-05
-1.42493e-06
-2.00583e-05
-2.23571e-05
8.11378e-07
2.09024e-06
1.96491e-06
6.80098e-06
3.01253e-06
9.56618e-06
3.99056e-06
1.06413e-05
4.8721e-06
1.05418e-05
5.59117e-06
9.61533e-06
6.10867e-06
8.19557e-06
6.42754e-06
6.5658e-06
6.56847e-06
4.91156e-06
6.54926e-06
3.31477e-06
6.36802e-06
1.798e-06
6.02205e-06
3.45603e-07
5.47828e-06
-1.121e-06
4.74425e-06
-2.59299e-06
3.81214e-06
-4.07124e-06
2.71104e-06
-5.60542e-06
1.40157e-06
-7.39348e-06
-1.49e-07
-1.10387e-05
-9.09093e-07
-1.92982e-05
-2.32661e-05
5.81412e-07
1.50883e-06
1.77016e-06
5.61223e-06
3.11527e-06
8.22107e-06
4.47291e-06
9.28368e-06
5.74559e-06
9.2691e-06
6.83471e-06
8.52621e-06
7.67485e-06
7.35543e-06
8.2533e-06
5.98734e-06
8.58231e-06
4.58255e-06
8.67844e-06
3.21864e-06
8.54828e-06
1.92816e-06
8.18893e-06
7.04958e-07
7.55623e-06
-4.88307e-07
6.66766e-06
-1.70441e-06
5.51061e-06
-2.91419e-06
4.12612e-06
-4.22093e-06
2.58831e-06
-5.85566e-06
9.68941e-07
-9.4193e-06
-1.38984e-07
-1.81903e-05
-2.34051e-05
1.54309e-07
1.35452e-06
1.0486e-06
4.71794e-06
2.53335e-06
6.73632e-06
4.26339e-06
7.55365e-06
5.99332e-06
7.53917e-06
7.53539e-06
6.98414e-06
8.7869e-06
6.10392e-06
9.718e-06
5.05624e-06
1.03237e-05
3.97684e-06
1.06153e-05
2.92703e-06
1.05987e-05
1.94477e-06
1.02794e-05
1.02429e-06
9.61094e-06
1.80132e-07
8.61604e-06
-7.09513e-07
7.28441e-06
-1.58256e-06
5.66828e-06
-2.60481e-06
3.9289e-06
-4.11627e-06
2.25058e-06
-7.74099e-06
6.56884e-07
-1.65966e-05
-2.27482e-05
-5.19132e-07
1.87365e-06
2.03697e-07
3.99511e-06
1.76779e-06
5.17222e-06
3.84128e-06
5.48015e-06
6.00694e-06
5.37351e-06
7.97771e-06
5.01337e-06
9.61697e-06
4.46466e-06
1.08831e-05
3.79011e-06
1.17585e-05
3.1014e-06
1.22594e-05
2.42621e-06
1.2389e-05
1.81515e-06
1.21671e-05
1.24619e-06
1.16179e-05
7.29289e-07
1.07117e-05
1.96676e-07
9.45328e-06
-3.24098e-07
7.91635e-06
-1.06788e-06
6.28687e-06
-2.48679e-06
4.46671e-06
-5.92083e-06
2.05972e-06
-1.41896e-05
-2.06885e-05
-4.18155e-06
6.05521e-06
-3.64414e-06
3.4577e-06
-1.24384e-06
2.77192e-06
1.56256e-06
2.67375e-06
4.31107e-06
2.625e-06
6.85462e-06
2.46983e-06
9.07947e-06
2.2398e-06
1.09251e-05
1.94444e-06
1.2373e-05
1.65354e-06
1.345e-05
1.34924e-06
1.4173e-05
1.09209e-06
1.4587e-05
8.32258e-07
1.46793e-05
6.36917e-07
1.44591e-05
4.1693e-07
1.39223e-05
2.12697e-07
1.30848e-05
-2.30425e-07
1.19346e-05
-1.33655e-06
1.01167e-05
-4.1029e-06
5.63957e-06
-9.71249e-06
-1.5049e-05
6.05521e-06
9.5129e-06
1.22848e-05
1.49586e-05
1.75836e-05
2.00534e-05
2.22932e-05
2.42376e-05
2.58912e-05
2.72404e-05
2.83325e-05
2.91648e-05
2.98017e-05
3.02186e-05
3.04313e-05
3.02009e-05
2.88643e-05
2.47614e-05
1.5049e-05
)
;

boundaryField
{
    movingWall
    {
        type            calculated;
        value           uniform 0;
    }
    fixedWalls
    {
        type            calculated;
        value           uniform 0;
    }
    frontAndBack
    {
        type            empty;
        value           nonuniform List<scalar> 0();
    }
}


// ************************************************************************* //
