/*--------------------------------*- C++ -*----------------------------------*\
| =========                 |                                                 |
| \\      /  F ield         | OpenFOAM: The Open Source CFD Toolbox           |
|  \\    /   O peration     | Version:  2212                                  |
|   \\  /    A nd           | Website:  www.openfoam.com                      |
|    \\/     M anipulation  |                                                 |
\*---------------------------------------------------------------------------*/
FoamFile
{
    version     2.0;
    format      ascii;
    arch        "LSB;label=32;scalar=64";
    class       volScalarField;
    location    "9.6";
    object      T;
}
// * * * * * * * * * * * * * * * * * * * * * * * * * * * * * * * * * * * * * //

dimensions      [0 0 0 1 0 0 0];

internalField   nonuniform List<scalar> 
400
(
0.881732
0.88462
0.890465
0.899059
0.908969
0.91785
0.924041
0.927493
0.929267
0.93044
0.931486
0.932546
0.933662
0.934787
0.935735
0.936193
0.935649
0.933537
0.930129
0.927333
0.885501
0.889003
0.896008
0.905968
0.916366
0.92386
0.927419
0.928654
0.929116
0.929461
0.930074
0.931181
0.932855
0.934992
0.937139
0.938601
0.938308
0.935444
0.931073
0.927897
0.891357
0.896004
0.904619
0.914933
0.922964
0.926382
0.926477
0.925263
0.92368
0.922476
0.922304
0.923617
0.926433
0.93066
0.935512
0.939826
0.941653
0.939025
0.93281
0.928939
0.897074
0.902902
0.912251
0.920645
0.924392
0.923366
0.919794
0.915182
0.910581
0.907175
0.905848
0.907354
0.911511
0.918413
0.92711
0.936216
0.943146
0.94444
0.937452
0.931457
0.90149
0.908022
0.916732
0.921709
0.920678
0.915099
0.90722
0.89848
0.890468
0.884622
0.881975
0.883402
0.888674
0.897998
0.910542
0.924961
0.938684
0.947657
0.945924
0.936211
0.904458
0.911029
0.918026
0.918988
0.913198
0.903016
0.890652
0.877914
0.866816
0.858853
0.855067
0.856142
0.862061
0.872949
0.888289
0.906963
0.926781
0.944027
0.952382
0.943221
0.906207
0.912216
0.916918
0.913917
0.903789
0.889385
0.87305
0.857087
0.843728
0.834395
0.829945
0.830715
0.83682
0.848321
0.865053
0.886358
0.910507
0.934152
0.951792
0.953238
0.907073
0.912216
0.914638
0.908225
0.894421
0.876439
0.856954
0.838697
0.823942
0.813941
0.809245
0.809892
0.815906
0.827296
0.844151
0.866463
0.893339
0.921804
0.946261
0.95863
0.907335
0.911523
0.911959
0.902873
0.88625
0.865611
0.843944
0.824235
0.808703
0.798405
0.793617
0.794213
0.80008
0.811099
0.827341
0.849262
0.877211
0.909283
0.939124
0.956392
0.907204
0.910573
0.909653
0.898928
0.880507
0.858118
0.835036
0.814402
0.798366
0.787809
0.782842
0.783299
0.789012
0.799729
0.815258
0.836044
0.863517
0.897724
0.932708
0.954724
0.906807
0.909569
0.907891
0.896424
0.877162
0.853979
0.830312
0.809292
0.792955
0.782088
0.776767
0.776878
0.782288
0.792689
0.807602
0.827064
0.852993
0.887714
0.926723
0.953653
0.906217
0.908636
0.906899
0.895778
0.876802
0.853798
0.830261
0.809236
0.792694
0.781442
0.775621
0.775183
0.780032
0.78987
0.804062
0.822129
0.84586
0.879816
0.921948
0.953074
0.905429
0.907737
0.906405
0.896412
0.878663
0.856763
0.834155
0.813737
0.797399
0.785989
0.779735
0.778632
0.782647
0.791504
0.804558
0.821036
0.842118
0.874023
0.918166
0.953013
0.904394
0.906819
0.90635
0.898331
0.882896
0.863152
0.842347
0.823181
0.807461
0.796105
0.789461
0.787529
0.790384
0.797751
0.809069
0.823454
0.841579
0.870651
0.915726
0.953376
0.903017
0.905705
0.906079
0.900193
0.887635
0.870876
0.852805
0.835821
0.821556
0.810896
0.804266
0.801649
0.803172
0.808622
0.817553
0.82936
0.844343
0.869646
0.914443
0.954172
0.901371
0.904419
0.905871
0.902425
0.893353
0.88038
0.865859
0.851803
0.839625
0.83013
0.823745
0.820529
0.820516
0.823652
0.829669
0.838277
0.849866
0.870647
0.914391
0.955426
0.899753
0.90273
0.904459
0.902717
0.896812
0.887841
0.877446
0.867116
0.85789
0.85041
0.844953
0.841676
0.840476
0.841471
0.844649
0.849962
0.85851
0.875353
0.916936
0.957557
0.898604
0.902006
0.904532
0.904195
0.901077
0.895816
0.88937
0.882652
0.876325
0.870883
0.866506
0.863401
0.861551
0.86107
0.862262
0.864998
0.871329
0.884335
0.92173
0.960245
0.883798
0.899101
0.899465
0.899367
0.897735
0.895382
0.892605
0.889991
0.887572
0.885793
0.884497
0.883935
0.88402
0.884701
0.886479
0.888735
0.894492
0.904503
0.932963
0.964852
0.918309
0.928253
0.933628
0.936909
0.938727
0.939908
0.940578
0.941242
0.941728
0.942422
0.943035
0.943916
0.944729
0.945811
0.946845
0.948266
0.95005
0.953791
0.961189
0.974297
)
;

boundaryField
{
    movingWall
    {
        type            fixedValue;
        value           uniform 1;
    }
    fixedWalls
    {
        type            zeroGradient;
    }
    frontAndBack
    {
        type            empty;
    }
}


// ************************************************************************* //
