/*--------------------------------*- C++ -*----------------------------------*\
| =========                 |                                                 |
| \\      /  F ield         | OpenFOAM: The Open Source CFD Toolbox           |
|  \\    /   O peration     | Version:  2212                                  |
|   \\  /    A nd           | Website:  www.openfoam.com                      |
|    \\/     M anipulation  |                                                 |
\*---------------------------------------------------------------------------*/
FoamFile
{
    version     2.0;
    format      ascii;
    arch        "LSB;label=32;scalar=64";
    class       volVectorField;
    location    "9.6";
    object      U;
}
// * * * * * * * * * * * * * * * * * * * * * * * * * * * * * * * * * * * * * //

dimensions      [0 1 -1 0 0 0 0];

internalField   nonuniform List<vector> 
400
(
(0.00168173 -0.0016837 0)
(0.00483848 -0.00189217 0)
(0.00659081 -0.00120068 0)
(0.00567444 -0.0005751 0)
(0.00157186 0.000184006 0)
(-0.00682938 0.00173938 0)
(-0.0206083 0.00478629 0)
(-0.039541 0.00873592 0)
(-0.0608109 0.0112925 0)
(-0.0791374 0.0105124 0)
(-0.0898127 0.00677452 0)
(-0.0904634 0.00166905 0)
(-0.0802264 -0.00361638 0)
(-0.0599945 -0.00827485 0)
(-0.0335217 -0.0108471 0)
(-0.00529359 -0.00979526 0)
(0.016723 -0.00477319 0)
(0.0244701 0.00277674 0)
(0.0161785 0.00647215 0)
(0.0043165 0.00471709 0)
(0.00172039 -0.00506496 0)
(0.00316238 -0.00403221 0)
(-0.000417482 0.00058788 0)
(-0.0113302 0.0064417 0)
(-0.0314262 0.01405 0)
(-0.0611499 0.0237738 0)
(-0.0968465 0.0330615 0)
(-0.13146 0.0370926 0)
(-0.158973 0.0335174 0)
(-0.176104 0.0234014 0)
(-0.181452 0.00910943 0)
(-0.17508 -0.00698989 0)
(-0.157562 -0.0231741 0)
(-0.129652 -0.0369141 0)
(-0.0936153 -0.0445659 0)
(-0.052195 -0.0418391 0)
(-0.0114006 -0.0263346 0)
(0.0168892 -0.00127939 0)
(0.0178719 0.0162236 0)
(0.00554218 0.0148199 0)
(-0.00023969 -0.00578008 0)
(-0.0053814 0.000802077 0)
(-0.0196098 0.0142995 0)
(-0.0445045 0.0312362 0)
(-0.0803419 0.0494459 0)
(-0.122206 0.0643211 0)
(-0.162352 0.0705471 0)
(-0.195275 0.0660292 0)
(-0.218868 0.0521914 0)
(-0.232536 0.0315341 0)
(-0.236292 0.00641649 0)
(-0.230806 -0.0211135 0)
(-0.216392 -0.0488734 0)
(-0.192547 -0.0732277 0)
(-0.159008 -0.0890277 0)
(-0.115743 -0.0892308 0)
(-0.0645639 -0.0670298 0)
(-0.0138216 -0.0226652 0)
(0.00948132 0.0179182 0)
(0.00415545 0.02358 0)
(-0.00347203 0.000453668 0)
(-0.0175152 0.017241 0)
(-0.0435172 0.0415016 0)
(-0.0796843 0.0681962 0)
(-0.122962 0.0911628 0)
(-0.165857 0.103851 0)
(-0.201929 0.102905 0)
(-0.229254 0.089673 0)
(-0.248093 0.067327 0)
(-0.259048 0.0385801 0)
(-0.262956 0.00531747 0)
(-0.260623 -0.0311175 0)
(-0.25199 -0.0684561 0)
(-0.236011 -0.103745 0)
(-0.210699 -0.131493 0)
(-0.173351 -0.142893 0)
(-0.121405 -0.125767 0)
(-0.0568455 -0.0708541 0)
(-0.000987138 0.00356591 0)
(0.00474229 0.0282406 0)
(-0.00666295 0.0147835 0)
(-0.0287309 0.0441126 0)
(-0.0632926 0.0770979 0)
(-0.104466 0.108925 0)
(-0.147288 0.131215 0)
(-0.18459 0.138203 0)
(-0.21293 0.129509 0)
(-0.232715 0.108751 0)
(-0.245232 0.0797998 0)
(-0.252209 0.0454485 0)
(-0.255328 0.0072405 0)
(-0.25551 -0.0339984 0)
(-0.25253 -0.0770849 0)
(-0.245848 -0.12069 0)
(-0.232652 -0.160827 0)
(-0.208328 -0.189038 0)
(-0.166826 -0.189987 0)
(-0.103452 -0.142883 0)
(-0.0221828 -0.0388544 0)
(0.00738197 0.0271013 0)
(-0.00851131 0.0348751 0)
(-0.0351795 0.0766433 0)
(-0.0730976 0.11496 0)
(-0.113272 0.147712 0)
(-0.150538 0.166046 0)
(-0.179403 0.165982 0)
(-0.19893 0.149771 0)
(-0.210677 0.122511 0)
(-0.216627 0.088549 0)
(-0.219259 0.050872 0)
(-0.220528 0.0109556 0)
(-0.221429 -0.0307583 0)
(-0.222161 -0.0747224 0)
(-0.222834 -0.121294 0)
(-0.221261 -0.169241 0)
(-0.212358 -0.213074 0)
(-0.188038 -0.238602 0)
(-0.139696 -0.218552 0)
(-0.0628523 -0.118947 0)
(0.00584916 0.0142034 0)
(-0.00829362 0.0570092 0)
(-0.0353453 0.110019 0)
(-0.0718439 0.150508 0)
(-0.107088 0.181203 0)
(-0.136726 0.193897 0)
(-0.157134 0.186502 0)
(-0.169047 0.163338 0)
(-0.174586 0.130552 0)
(-0.17616 0.0929057 0)
(-0.176259 0.0534116 0)
(-0.176373 0.0133148 0)
(-0.177174 -0.027311 0)
(-0.179206 -0.069579 0)
(-0.183014 -0.114732 0)
(-0.187962 -0.163866 0)
(-0.190432 -0.215836 0)
(-0.182543 -0.261687 0)
(-0.154293 -0.275205 0)
(-0.0994097 -0.205927 0)
(-0.00890847 -0.0146255 0)
(-0.00613652 0.0776074 0)
(-0.0297969 0.140574 0)
(-0.061436 0.181248 0)
(-0.0899104 0.208367 0)
(-0.111923 0.214957 0)
(-0.125462 0.20063 0)
(-0.132153 0.171397 0)
(-0.134306 0.134233 0)
(-0.134369 0.0941171 0)
(-0.13427 0.0537523 0)
(-0.134677 0.0138637 0)
(-0.13577 -0.0258894 0)
(-0.138002 -0.0664857 0)
(-0.142066 -0.109104 0)
(-0.148578 -0.155693 0)
(-0.156243 -0.208609 0)
(-0.159098 -0.265935 0)
(-0.146768 -0.30817 0)
(-0.112268 -0.27724 0)
(-0.0309691 -0.0753445 0)
(-0.0027307 0.0936292 0)
(-0.0204229 0.165669 0)
(-0.0451621 0.205644 0)
(-0.0663611 0.228638 0)
(-0.0816326 0.229601 0)
(-0.0901252 0.209614 0)
(-0.093759 0.175861 0)
(-0.0946721 0.135823 0)
(-0.0949504 0.0944758 0)
(-0.0957464 0.0540332 0)
(-0.0970965 0.0145941 0)
(-0.0989064 -0.0245856 0)
(-0.101343 -0.0642363 0)
(-0.104909 -0.105008 0)
(-0.110755 -0.14849 0)
(-0.119616 -0.198611 0)
(-0.128369 -0.25984 0)
(-0.12654 -0.323503 0)
(-0.107492 -0.334807 0)
(-0.0373542 -0.16346 0)
(0.00121936 0.102777 0)
(-0.00894578 0.183514 0)
(-0.0256514 0.223201 0)
(-0.0396532 0.242825 0)
(-0.0491346 0.239591 0)
(-0.0540089 0.215617 0)
(-0.0559795 0.17886 0)
(-0.0566931 0.137162 0)
(-0.0576545 0.0954069 0)
(-0.0593968 0.0552726 0)
(-0.0616899 0.0163102 0)
(-0.0643903 -0.0224921 0)
(-0.0674891 -0.0617406 0)
(-0.0711644 -0.101635 0)
(-0.0763483 -0.142842 0)
(-0.0846107 -0.188986 0)
(-0.0960783 -0.248408 0)
(-0.100661 -0.324371 0)
(-0.0951812 -0.372274 0)
(-0.0309259 -0.242615 0)
(0.00511899 0.103944 0)
(0.00295748 0.193115 0)
(-0.00539131 0.233698 0)
(-0.0125094 0.250859 0)
(-0.0169012 0.244775 0)
(-0.0187888 0.218558 0)
(-0.0194774 0.180495 0)
(-0.0200061 0.138419 0)
(-0.0213045 0.0969616 0)
(-0.0235405 0.057423 0)
(-0.0264294 0.0190819 0)
(-0.0299129 -0.0191671 0)
(-0.0340073 -0.057979 0)
(-0.0386511 -0.0974049 0)
(-0.0443897 -0.137362 0)
(-0.0524499 -0.180233 0)
(-0.0657669 -0.235708 0)
(-0.0742258 -0.318149 0)
(-0.0812028 -0.39678 0)
(-0.0229433 -0.307176 0)
(0.00845865 0.0974697 0)
(0.0142224 0.194109 0)
(0.0141055 0.237221 0)
(0.0137111 0.253641 0)
(0.014334 0.246562 0)
(0.0155312 0.219854 0)
(0.016391 0.181804 0)
(0.0164449 0.140089 0)
(0.0153071 0.0991491 0)
(0.01303 0.0602228 0)
(0.00986222 0.0226259 0)
(0.00575398 -0.0147514 0)
(0.000562267 -0.052694 0)
(-0.00556337 -0.0912982 0)
(-0.0130313 -0.130192 0)
(-0.0219784 -0.170374 0)
(-0.0377192 -0.220752 0)
(-0.0487301 -0.30451 0)
(-0.0679048 -0.408524 0)
(-0.0144593 -0.360058 0)
(0.0103304 0.0844896 0)
(0.0234216 0.186513 0)
(0.0310863 0.233345 0)
(0.0370167 0.250186 0)
(0.0426793 0.243347 0)
(0.0476349 0.217562 0)
(0.0510728 0.180799 0)
(0.0527491 0.140392 0)
(0.0526181 0.10063 0)
(0.0508891 0.0628205 0)
(0.0477795 0.0264563 0)
(0.0431715 -0.00951965 0)
(0.0368977 -0.0459988 0)
(0.0290821 -0.0831359 0)
(0.0189265 -0.120563 0)
(0.00760024 -0.158506 0)
(-0.0118151 -0.204465 0)
(-0.0242377 -0.286512 0)
(-0.0558434 -0.41103 0)
(-0.00613734 -0.401905 0)
(0.00987904 0.0672371 0)
(0.0290334 0.170702 0)
(0.0443612 0.222253 0)
(0.0569055 0.241351 0)
(0.0682009 0.236424 0)
(0.0778898 0.213062 0)
(0.0851128 0.178769 0)
(0.0895691 0.140427 0)
(0.0913352 0.102266 0)
(0.0907108 0.0658289 0)
(0.0880258 0.0309788 0)
(0.0829766 -0.00330135 0)
(0.0754616 -0.0375456 0)
(0.0657688 -0.072329 0)
(0.0525159 -0.107456 0)
(0.0375811 -0.142806 0)
(0.0131374 -0.184292 0)
(8.41221e-05 -0.263273 0)
(-0.0447957 -0.40673 0)
(0.00276619 -0.436282 0)
(0.00693048 0.0493977 0)
(0.0293684 0.148977 0)
(0.05112 0.203661 0)
(0.0700016 0.224582 0)
(0.0874806 0.221726 0)
(0.103178 0.201567 0)
(0.115851 0.170972 0)
(0.124818 0.136081 0)
(0.129992 0.100882 0)
(0.131614 0.0670523 0)
(0.129951 0.034843 0)
(0.125027 0.00342954 0)
(0.116395 -0.0274686 0)
(0.104661 -0.0587091 0)
(0.0875656 -0.0903345 0)
(0.0683732 -0.122954 0)
(0.0383056 -0.160875 0)
(0.0238651 -0.237173 0)
(-0.0344372 -0.398976 0)
(0.0134759 -0.464438 0)
(0.00238734 0.0346263 0)
(0.0236441 0.123906 0)
(0.0509657 0.179964 0)
(0.076702 0.202966 0)
(0.101372 0.202656 0)
(0.124259 0.186255 0)
(0.143717 0.160198 0)
(0.158529 0.129766 0)
(0.168277 0.0985716 0)
(0.173169 0.068304 0)
(0.173145 0.0395602 0)
(0.168916 0.0119347 0)
(0.159079 -0.0149148 0)
(0.145344 -0.0417218 0)
(0.124037 -0.0687664 0)
(0.100493 -0.0975696 0)
(0.0646338 -0.132725 0)
(0.0470129 -0.207468 0)
(-0.0227015 -0.38709 0)
(0.0285343 -0.485563 0)
(-0.00342628 0.0286127 0)
(0.0100741 0.101503 0)
(0.0371178 0.148706 0)
(0.0689877 0.169475 0)
(0.101887 0.170697 0)
(0.133612 0.158406 0)
(0.161615 0.13797 0)
(0.184165 0.113565 0)
(0.200217 0.0882762 0)
(0.210144 0.0636325 0)
(0.21307 0.0403796 0)
(0.210817 0.0184002 0)
(0.200551 -0.00268056 0)
(0.185917 -0.0233194 0)
(0.161098 -0.0439871 0)
(0.134475 -0.0677501 0)
(0.0929378 -0.101702 0)
(0.0698811 -0.180021 0)
(-0.00436487 -0.370056 0)
(0.0521626 -0.491643 0)
(-0.0140122 0.0185165 0)
(-0.00751605 0.0881759 0)
(0.0192223 0.124198 0)
(0.0564602 0.137326 0)
(0.0976196 0.13692 0)
(0.138008 0.127737 0)
(0.174266 0.11308 0)
(0.204117 0.0953001 0)
(0.226016 0.0768259 0)
(0.241112 0.0586753 0)
(0.247148 0.041801 0)
(0.248064 0.0261053 0)
(0.238724 0.0117401 0)
(0.226905 -0.00205232 0)
(0.201902 -0.0160935 0)
(0.177913 -0.0350302 0)
(0.133561 -0.0678086 0)
(0.107843 -0.146005 0)
(0.0374739 -0.326119 0)
(0.0923681 -0.455871 0)
(-0.10602 0.0824174 0)
(-0.0777602 0.0689904 0)
(-0.0485678 0.0733708 0)
(0.00378285 0.0778916 0)
(0.0573013 0.0782262 0)
(0.110037 0.0739623 0)
(0.157209 0.0666269 0)
(0.199575 0.0572218 0)
(0.231689 0.0475452 0)
(0.259844 0.0378879 0)
(0.275572 0.0292198 0)
(0.290727 0.0212329 0)
(0.291079 0.0144746 0)
(0.295188 0.00809083 0)
(0.278883 0.00112234 0)
(0.271665 -0.0100151 0)
(0.232352 -0.0355698 0)
(0.218145 -0.0954199 0)
(0.150208 -0.229723 0)
(0.170672 -0.341455 0)
(0.129969 0.103745 0)
(0.15832 0.0752277 0)
(0.212165 0.0532274 0)
(0.270673 0.0416226 0)
(0.323249 0.035913 0)
(0.375692 0.0319487 0)
(0.420289 0.0289165 0)
(0.465609 0.025581 0)
(0.498706 0.022903 0)
(0.533957 0.0197105 0)
(0.553395 0.0175476 0)
(0.579206 0.0146096 0)
(0.585343 0.0131647 0)
(0.603682 0.0103457 0)
(0.595101 0.00938329 0)
(0.603601 0.00499961 0)
(0.567792 8.90757e-05 0)
(0.547613 -0.018316 0)
(0.43569 -0.0504144 0)
(0.336753 -0.101386 0)
)
;

boundaryField
{
    movingWall
    {
        type            fixedValue;
        value           uniform (1 0 0);
    }
    fixedWalls
    {
        type            noSlip;
    }
    frontAndBack
    {
        type            empty;
    }
}


// ************************************************************************* //
