/*--------------------------------*- C++ -*----------------------------------*\
| =========                 |                                                 |
| \\      /  F ield         | OpenFOAM: The Open Source CFD Toolbox           |
|  \\    /   O peration     | Version:  2212                                  |
|   \\  /    A nd           | Website:  www.openfoam.com                      |
|    \\/     M anipulation  |                                                 |
\*---------------------------------------------------------------------------*/
FoamFile
{
    version     2.0;
    format      ascii;
    arch        "LSB;label=32;scalar=64";
    class       volScalarField;
    location    "15";
    object      p;
}
// * * * * * * * * * * * * * * * * * * * * * * * * * * * * * * * * * * * * * //

dimensions      [0 2 -2 0 0 0 0];

internalField   nonuniform List<scalar> 
400
(
1.33337e-07
-0.000150894
-0.000534979
-0.00107218
-0.00173291
-0.0024944
-0.00318553
-0.00359811
-0.00356588
-0.00293461
-0.00154906
0.000618908
0.00324914
0.00551365
0.00653332
0.00592241
0.00400157
0.00214913
0.00111012
0.00104107
0.000115991
-5.84276e-05
-0.000377373
-0.000764549
-0.00124447
-0.0018886
-0.00270673
-0.00354407
-0.00408057
-0.00393898
-0.00284698
-0.000825378
0.00168889
0.00396046
0.00512424
0.00474261
0.00310248
0.00137423
0.000592635
0.000683679
0.000536107
0.000264636
-7.76563e-05
-0.000560016
-0.00134773
-0.00258114
-0.00421972
-0.00598442
-0.00740324
-0.00794456
-0.00726486
-0.00546263
-0.00289225
-0.000195222
0.00179119
0.00242718
0.00170823
0.000501524
-0.000396668
-0.000393375
0.00115162
0.000740934
0.000191543
-0.0007752
-0.00245161
-0.00493842
-0.00799584
-0.0111213
-0.0137042
-0.0151778
-0.0152076
-0.0138407
-0.0112944
-0.00802981
-0.00475297
-0.00221047
-0.000871151
-0.000706995
-0.00128961
-0.00191893
0.00158302
0.000973417
-2.32168e-05
-0.00192453
-0.00500724
-0.00918079
-0.0139145
-0.0184806
-0.0222171
-0.0246538
-0.0255295
-0.0247237
-0.0223643
-0.0187443
-0.0143054
-0.00965648
-0.00559289
-0.00294968
-0.00219404
-0.00401876
0.00129308
0.000444728
-0.00119771
-0.00430488
-0.00900569
-0.0148814
-0.0210737
-0.0267162
-0.0311923
-0.0341796
-0.0355464
-0.0351904
-0.0331978
-0.0297195
-0.0249002
-0.0189617
-0.012506
-0.00694913
-0.00440166
-0.00652498
-4.85946e-05
-0.00114787
-0.00349986
-0.00779739
-0.0139333
-0.0211153
-0.0282372
-0.0344088
-0.0391298
-0.0422332
-0.0437209
-0.0436115
-0.0419737
-0.0388797
-0.0343117
-0.0281579
-0.0205397
-0.0127036
-0.00785554
-0.00774873
-0.00245078
-0.00374252
-0.00669904
-0.011914
-0.0190407
-0.0269828
-0.0345052
-0.0407804
-0.0454521
-0.0484783
-0.049941
-0.0499323
-0.0485315
-0.0457895
-0.0416633
-0.0359275
-0.0283264
-0.0193718
-0.011823
-0.00798124
-0.00553798
-0.00691559
-0.0102641
-0.0160226
-0.023659
-0.0318905
-0.0394525
-0.0456142
-0.0501389
-0.053059
-0.0544882
-0.0545283
-0.053254
-0.050727
-0.0469632
-0.041813
-0.0348687
-0.0259484
-0.0167099
-0.00999522
-0.00873413
-0.0100863
-0.0135982
-0.0195429
-0.0272873
-0.0354882
-0.0429134
-0.0489112
-0.053311
-0.056169
-0.057593
-0.0576642
-0.0564457
-0.0540125
-0.0504523
-0.0457615
-0.039635
-0.0315248
-0.022322
-0.0143406
-0.0115045
-0.0127583
-0.0162198
-0.0220549
-0.0296079
-0.0375896
-0.0448276
-0.0507006
-0.0550442
-0.0578957
-0.0593381
-0.0594296
-0.0582203
-0.0557903
-0.052288
-0.0478534
-0.042432
-0.0353834
-0.0271987
-0.01918
-0.0135497
-0.0146191
-0.0178564
-0.023316
-0.0304317
-0.0380637
-0.0451188
-0.0509509
-0.0553304
-0.0582419
-0.0597296
-0.059832
-0.0585899
-0.0560844
-0.0525167
-0.0481391
-0.0432077
-0.0370571
-0.0300326
-0.0224179
-0.0148377
-0.0155682
-0.0183522
-0.0232107
-0.029694
-0.0368796
-0.0437655
-0.0496412
-0.054156
-0.0572022
-0.0587713
-0.0588784
-0.0575591
-0.054917
-0.0511781
-0.0466567
-0.0419662
-0.0363007
-0.0302267
-0.0228965
-0.0154681
-0.0157224
-0.0177776
-0.0217467
-0.0273901
-0.0340322
-0.0407512
-0.0467414
-0.0514938
-0.0547693
-0.0564833
-0.0566243
-0.0552026
-0.0523538
-0.0483469
-0.0435824
-0.0387312
-0.0331419
-0.0281
-0.0202797
-0.0155746
-0.0152984
-0.0163383
-0.0190881
-0.0236534
-0.0296346
-0.0361721
-0.0423365
-0.0474284
-0.0510403
-0.0529811
-0.0531844
-0.0516918
-0.0485921
-0.0442273
-0.0390543
-0.0337822
-0.0280719
-0.0242318
-0.0143852
-0.015277
-0.0145503
-0.014261
-0.0154262
-0.0186851
-0.023895
-0.0302318
-0.0366153
-0.0421384
-0.0462019
-0.0484901
-0.0488671
-0.0473538
-0.0440215
-0.0392494
-0.0335193
-0.0276415
-0.0216295
-0.0180537
-0.00383305
-0.0146622
-0.0136184
-0.0117071
-0.0110812
-0.0129539
-0.0173806
-0.0235344
-0.0301708
-0.0361938
-0.0408121
-0.0435793
-0.0442623
-0.0428512
-0.0393769
-0.0341856
-0.02769
-0.0206824
-0.0132763
-0.00678582
0.0160529
-0.0145834
-0.0126574
-0.00864865
-0.00623478
-0.00691025
-0.010746
-0.0168181
-0.0237403
-0.030299
-0.0355397
-0.0389041
-0.0400356
-0.038878
-0.0354484
-0.0298962
-0.022276
-0.0128727
-0.000688152
0.0166951
0.0570639
-0.0117948
-0.0118309
-0.00572627
-0.00177517
-0.00176514
-0.0054049
-0.0115754
-0.0188152
-0.0258759
-0.0316879
-0.0356628
-0.0373623
-0.0366857
-0.0333557
-0.0272245
-0.0175417
-0.00314828
0.0204903
0.0607044
0.129821
-0.029517
-0.0106299
-0.000609024
0.00308068
0.00244811
-0.00155717
-0.00799966
-0.0155536
-0.0229765
-0.0291742
-0.0335323
-0.0355884
-0.0352016
-0.0319561
-0.0252279
-0.0128602
0.00942257
0.0511715
0.122878
0.226076
)
;

boundaryField
{
    movingWall
    {
        type            zeroGradient;
    }
    fixedWalls
    {
        type            zeroGradient;
    }
    frontAndBack
    {
        type            empty;
    }
}


// ************************************************************************* //
