/*--------------------------------*- C++ -*----------------------------------*\
| =========                 |                                                 |
| \\      /  F ield         | OpenFOAM: The Open Source CFD Toolbox           |
|  \\    /   O peration     | Version:  2212                                  |
|   \\  /    A nd           | Website:  www.openfoam.com                      |
|    \\/     M anipulation  |                                                 |
\*---------------------------------------------------------------------------*/
FoamFile
{
    version     2.0;
    format      ascii;
    arch        "LSB;label=32;scalar=64";
    class       volScalarField;
    location    "15";
    object      T;
}
// * * * * * * * * * * * * * * * * * * * * * * * * * * * * * * * * * * * * * //

dimensions      [0 0 0 1 0 0 0];

internalField   nonuniform List<scalar> 
400
(
0.96136
0.962177
0.963837
0.966293
0.969161
0.97178
0.973661
0.974759
0.975353
0.975758
0.976126
0.976507
0.976915
0.977337
0.977707
0.977921
0.977806
0.977177
0.976138
0.975286
0.962405
0.963407
0.965416
0.968293
0.971341
0.973591
0.974696
0.975083
0.975216
0.975316
0.975521
0.975912
0.976516
0.977301
0.978108
0.978696
0.978695
0.977828
0.976462
0.975479
0.964036
0.965384
0.967885
0.970898
0.973272
0.974279
0.974242
0.973757
0.973152
0.972695
0.972617
0.973081
0.974094
0.975623
0.977395
0.979003
0.979772
0.979029
0.977058
0.975836
0.965635
0.96734
0.970068
0.972511
0.973551
0.973085
0.971751
0.970052
0.968375
0.967134
0.96665
0.967187
0.968681
0.971162
0.974292
0.977583
0.980138
0.980773
0.97859
0.976671
0.966864
0.968774
0.971287
0.972644
0.972108
0.970051
0.967177
0.964011
0.961118
0.959007
0.958053
0.958569
0.960471
0.963826
0.968332
0.973502
0.978428
0.981711
0.981342
0.97822
0.967672
0.96957
0.97151
0.97154
0.969368
0.965671
0.961191
0.95659
0.952579
0.9497
0.948332
0.948727
0.950875
0.954816
0.96035
0.967062
0.974155
0.980318
0.983386
0.980486
0.968118
0.96981
0.970969
0.969653
0.965957
0.960741
0.954829
0.949053
0.944206
0.940817
0.939201
0.939487
0.941714
0.945899
0.951966
0.959661
0.96834
0.97679
0.983071
0.983736
0.968303
0.969694
0.970071
0.967575
0.962568
0.956056
0.948997
0.942372
0.937
0.933354
0.931641
0.931884
0.934088
0.938251
0.94439
0.952482
0.962176
0.972384
0.981095
0.985476
0.968311
0.96938
0.969071
0.965633
0.959611
0.952132
0.944271
0.9371
0.931429
0.927661
0.925909
0.926134
0.928292
0.932335
0.938274
0.946255
0.956372
0.967903
0.978561
0.984686
0.968208
0.969012
0.968235
0.964209
0.957533
0.949414
0.941028
0.933506
0.927638
0.923767
0.921945
0.922118
0.924224
0.928164
0.933859
0.941453
0.95143
0.963758
0.976268
0.984088
0.968033
0.968653
0.967616
0.96331
0.95632
0.947909
0.939304
0.931632
0.925648
0.921659
0.919705
0.919751
0.921748
0.925576
0.931054
0.938181
0.947625
0.960168
0.974137
0.983707
0.967807
0.968342
0.967297
0.963096
0.956195
0.947845
0.939283
0.931608
0.925548
0.921417
0.919279
0.919123
0.920914
0.924536
0.929751
0.936377
0.945041
0.957331
0.97243
0.983498
0.967525
0.96806
0.967174
0.963351
0.956875
0.948921
0.940699
0.933251
0.927271
0.923086
0.92079
0.920389
0.921872
0.925132
0.929928
0.935974
0.943685
0.955254
0.971084
0.983475
0.967169
0.967788
0.967235
0.964097
0.95843
0.951249
0.943684
0.936699
0.930955
0.926796
0.924362
0.923657
0.92471
0.92742
0.931577
0.936854
0.943492
0.954049
0.970215
0.983603
0.966704
0.967449
0.967225
0.964834
0.960174
0.954063
0.947491
0.941309
0.936107
0.932213
0.929789
0.928834
0.929398
0.9314
0.934678
0.93901
0.944501
0.9537
0.969764
0.983884
0.966153
0.967059
0.967263
0.965743
0.962309
0.957543
0.952249
0.947133
0.942699
0.939239
0.936911
0.935741
0.935742
0.936897
0.939106
0.942266
0.946515
0.954076
0.96975
0.984328
0.965604
0.966496
0.966836
0.965947
0.963643
0.960304
0.956491
0.952722
0.949362
0.946639
0.944653
0.943464
0.943034
0.943407
0.944578
0.946533
0.949664
0.955787
0.970666
0.985084
0.965216
0.966297
0.966963
0.966608
0.965311
0.963299
0.960898
0.958426
0.95611
0.954125
0.952533
0.951407
0.95074
0.950574
0.951015
0.952021
0.954322
0.959029
0.97238
0.986036
0.959977
0.965132
0.965121
0.96494
0.964242
0.963311
0.962246
0.961256
0.960346
0.959675
0.959183
0.95896
0.958972
0.959202
0.959828
0.960629
0.962682
0.966257
0.976382
0.987668
0.971889
0.975287
0.977107
0.978198
0.978781
0.979147
0.979338
0.979533
0.979671
0.979886
0.980077
0.980365
0.980633
0.980997
0.981349
0.981836
0.982459
0.983772
0.986392
0.991006
)
;

boundaryField
{
    movingWall
    {
        type            fixedValue;
        value           uniform 1;
    }
    fixedWalls
    {
        type            zeroGradient;
    }
    frontAndBack
    {
        type            empty;
    }
}


// ************************************************************************* //
