/*--------------------------------*- C++ -*----------------------------------*\
| =========                 |                                                 |
| \\      /  F ield         | OpenFOAM: The Open Source CFD Toolbox           |
|  \\    /   O peration     | Version:  2212                                  |
|   \\  /    A nd           | Website:  www.openfoam.com                      |
|    \\/     M anipulation  |                                                 |
\*---------------------------------------------------------------------------*/
FoamFile
{
    version     2.0;
    format      ascii;
    arch        "LSB;label=32;scalar=64";
    class       volScalarField;
    location    "15.7";
    object      T;
}
// * * * * * * * * * * * * * * * * * * * * * * * * * * * * * * * * * * * * * //

dimensions      [0 0 0 1 0 0 0];

internalField   nonuniform List<scalar> 
400
(
0.966292
0.967001
0.968442
0.970575
0.973065
0.975342
0.976979
0.977935
0.978455
0.978808
0.97913
0.979463
0.97982
0.98019
0.980515
0.980703
0.980604
0.980057
0.979152
0.978411
0.967198
0.968069
0.969813
0.972312
0.97496
0.976917
0.977879
0.978217
0.978333
0.97842
0.978599
0.978941
0.979469
0.980156
0.980863
0.981379
0.981381
0.980626
0.979436
0.978579
0.968613
0.969785
0.971957
0.974575
0.976638
0.977514
0.97748
0.977055
0.976525
0.976123
0.976055
0.976461
0.977347
0.978686
0.980236
0.981644
0.98232
0.981675
0.979956
0.978891
0.97
0.971482
0.973852
0.975974
0.976877
0.976467
0.975298
0.973811
0.972343
0.971257
0.970833
0.971303
0.97261
0.974781
0.977519
0.980399
0.982636
0.983196
0.981294
0.97962
0.971067
0.972726
0.974909
0.976085
0.975611
0.973811
0.971295
0.968525
0.965992
0.964145
0.963311
0.963762
0.965426
0.968363
0.972305
0.976828
0.981137
0.984012
0.983695
0.980972
0.971767
0.973415
0.975097
0.975115
0.973213
0.969978
0.966057
0.962031
0.958521
0.956001
0.954805
0.95515
0.95703
0.960479
0.965321
0.971194
0.977399
0.982791
0.985476
0.982948
0.972152
0.97362
0.97462
0.973463
0.970228
0.965663
0.960489
0.955435
0.951194
0.948227
0.946813
0.947063
0.949013
0.952675
0.957985
0.964719
0.972312
0.979704
0.985199
0.985784
0.972311
0.973516
0.973833
0.971644
0.967262
0.961564
0.955386
0.949588
0.944886
0.941694
0.940195
0.940408
0.942337
0.945982
0.951355
0.958436
0.966919
0.97585
0.983469
0.987301
0.972315
0.973239
0.972956
0.969944
0.964674
0.958129
0.95125
0.944974
0.940009
0.936711
0.935177
0.935374
0.937263
0.940802
0.946002
0.952987
0.96184
0.971929
0.981253
0.98661
0.972224
0.972916
0.972225
0.968698
0.962856
0.955751
0.948411
0.941827
0.93669
0.933301
0.931706
0.931858
0.933702
0.937151
0.942137
0.948784
0.957516
0.968303
0.979247
0.986087
0.97207
0.972602
0.971683
0.967912
0.961795
0.954433
0.946902
0.940187
0.934948
0.931456
0.929745
0.929785
0.931533
0.934885
0.939681
0.94592
0.954186
0.965162
0.977383
0.985754
0.971871
0.972331
0.971406
0.967725
0.961685
0.954377
0.946883
0.940165
0.93486
0.931243
0.929372
0.929235
0.930803
0.933975
0.93854
0.94434
0.951924
0.96268
0.97589
0.985571
0.971625
0.972085
0.9713
0.967949
0.96228
0.955319
0.948123
0.941603
0.936368
0.932704
0.930694
0.930343
0.931641
0.934496
0.938695
0.943988
0.950738
0.960863
0.974713
0.985551
0.971314
0.971848
0.971355
0.968603
0.963641
0.957357
0.950736
0.944621
0.939593
0.935953
0.933821
0.933204
0.934126
0.936499
0.940138
0.944758
0.950569
0.959808
0.973953
0.985662
0.970908
0.971554
0.971349
0.969249
0.965169
0.959819
0.954067
0.948657
0.944103
0.940694
0.938572
0.937736
0.93823
0.939983
0.942853
0.946645
0.951453
0.959504
0.973558
0.985909
0.970427
0.971214
0.971384
0.970047
0.967038
0.962866
0.958232
0.953754
0.949873
0.946844
0.944806
0.943782
0.943783
0.944794
0.946728
0.949495
0.953215
0.959833
0.973546
0.986297
0.969947
0.970722
0.971013
0.970228
0.968208
0.965283
0.961946
0.958646
0.955705
0.953321
0.951584
0.950543
0.950166
0.950493
0.951519
0.95323
0.955971
0.961331
0.974347
0.986958
0.969609
0.97055
0.971127
0.97081
0.969671
0.967907
0.965805
0.96364
0.961612
0.959875
0.958481
0.957496
0.956912
0.956767
0.957154
0.958034
0.960048
0.964167
0.975847
0.987791
0.965026
0.969528
0.969514
0.969353
0.968739
0.967922
0.966988
0.966121
0.965324
0.964736
0.964305
0.964109
0.964119
0.96432
0.964867
0.965568
0.967363
0.970491
0.979347
0.989218
0.975436
0.978405
0.979994
0.980946
0.981455
0.981773
0.98194
0.982109
0.982229
0.982416
0.982582
0.982833
0.983067
0.983385
0.983692
0.984118
0.984663
0.985811
0.988103
0.992137
)
;

boundaryField
{
    movingWall
    {
        type            fixedValue;
        value           uniform 1;
    }
    fixedWalls
    {
        type            zeroGradient;
    }
    frontAndBack
    {
        type            empty;
    }
}


// ************************************************************************* //
