/*--------------------------------*- C++ -*----------------------------------*\
| =========                 |                                                 |
| \\      /  F ield         | OpenFOAM: The Open Source CFD Toolbox           |
|  \\    /   O peration     | Version:  2212                                  |
|   \\  /    A nd           | Website:  www.openfoam.com                      |
|    \\/     M anipulation  |                                                 |
\*---------------------------------------------------------------------------*/
FoamFile
{
    version     2.0;
    format      ascii;
    arch        "LSB;label=32;scalar=64";
    class       surfaceScalarField;
    location    "5.4";
    object      phi;
}
// * * * * * * * * * * * * * * * * * * * * * * * * * * * * * * * * * * * * * //

dimensions      [0 3 -1 0 0 0 0];

oriented        oriented;

internalField   nonuniform List<scalar> 
760
(
1.55538e-07
-1.55551e-07
2.92427e-07
-1.36889e-07
3.08494e-07
-1.60672e-08
1.82205e-07
1.26289e-07
-1.21407e-07
3.03612e-07
-6.66059e-07
5.44652e-07
-1.48372e-06
8.17662e-07
-2.48736e-06
1.00364e-06
-3.47537e-06
9.88014e-07
-4.21494e-06
7.39568e-07
-4.53919e-06
3.24247e-07
-4.35071e-06
-1.88472e-07
-3.59337e-06
-7.57341e-07
-2.3813e-06
-1.21207e-06
-9.44532e-07
-1.43677e-06
3.42176e-07
-1.28671e-06
1.08526e-06
-7.43085e-07
1.03046e-06
5.48026e-08
4.60113e-07
5.70346e-07
4.60113e-07
1.24078e-07
-2.7963e-07
7.28447e-08
-8.56565e-08
-2.98655e-07
3.55433e-07
-1.07932e-06
9.06956e-07
-2.31395e-06
1.53824e-06
-3.92217e-06
2.15287e-06
-5.65392e-06
2.54941e-06
-7.19643e-06
2.54615e-06
-8.32532e-06
2.1169e-06
-8.93078e-06
1.34503e-06
-8.96582e-06
3.59289e-07
-8.40783e-06
-7.46464e-07
-7.28806e-06
-1.87711e-06
-5.63967e-06
-2.86046e-06
-3.60654e-06
-3.4699e-06
-1.49321e-06
-3.40004e-06
1.74552e-07
-2.41085e-06
8.55919e-07
-6.26566e-07
5.24534e-07
9.01729e-07
9.84647e-07
-1.28354e-07
-1.51276e-07
-6.34625e-07
4.20614e-07
-1.62416e-06
1.34497e-06
-3.13769e-06
2.42049e-06
-5.04975e-06
3.4503e-06
-7.06168e-06
4.1648e-06
-8.85868e-06
4.34641e-06
-1.02608e-05
3.94825e-06
-1.12162e-05
3.07235e-06
-1.17174e-05
1.84616e-06
-1.17124e-05
3.54305e-07
-1.1255e-05
-1.20382e-06
-1.03248e-05
-2.80733e-06
-8.86743e-06
-4.31783e-06
-6.86297e-06
-5.47435e-06
-4.40044e-06
-5.86257e-06
-1.87899e-06
-4.9323e-06
-8.7944e-08
-2.41761e-06
2.94087e-07
5.19698e-07
1.27873e-06
-5.00229e-07
3.48953e-07
-1.55826e-06
1.47864e-06
-3.11471e-06
2.90141e-06
-5.07238e-06
4.37816e-06
-7.17183e-06
5.54975e-06
-9.10599e-06
6.09895e-06
-1.06728e-05
5.91326e-06
-1.18298e-05
5.10517e-06
-1.26048e-05
3.84739e-06
-1.30327e-05
2.27408e-06
-1.30984e-05
4.19992e-07
-1.28602e-05
-1.44198e-06
-1.22798e-05
-3.38781e-06
-1.12551e-05
-5.34251e-06
-9.65527e-06
-7.07418e-06
-7.35558e-06
-8.16225e-06
-4.39441e-06
-7.89346e-06
-1.3779e-06
-5.43412e-06
1.20104e-07
-9.7831e-07
1.39884e-06
-8.60427e-07
1.20938e-06
-2.3572e-06
2.97542e-06
-4.22414e-06
4.76835e-06
-6.26689e-06
6.42091e-06
-8.20506e-06
7.48792e-06
-9.81631e-06
7.7102e-06
-1.10238e-05
7.12077e-06
-1.1854e-05
5.93538e-06
-1.23688e-05
4.3622e-06
-1.26411e-05
2.54633e-06
-1.27616e-05
5.40508e-07
-1.27173e-05
-1.4863e-06
-1.2499e-05
-3.60607e-06
-1.20276e-05
-5.8139e-06
-1.11167e-05
-7.98516e-06
-9.4781e-06
-9.80082e-06
-6.81282e-06
-1.05587e-05
-3.21947e-06
-9.02747e-06
-2.6165e-07
-3.93613e-06
1.13719e-06
-1.08441e-06
2.29379e-06
-2.77802e-06
4.66902e-06
-4.66731e-06
6.65765e-06
-6.52097e-06
8.27457e-06
-8.11513e-06
9.08209e-06
-9.31878e-06
8.91385e-06
-1.01276e-05
7.92962e-06
-1.06067e-05
6.41446e-06
-1.08464e-05
4.60189e-06
-1.09468e-05
2.64669e-06
-1.10294e-05
6.23107e-07
-1.10812e-05
-1.43449e-06
-1.1118e-05
-3.56923e-06
-1.11106e-05
-5.82136e-06
-1.09049e-05
-8.19083e-06
-1.01736e-05
-1.05321e-05
-8.42274e-06
-1.23096e-05
-5.23698e-06
-1.22132e-05
-1.15753e-06
-8.01558e-06
-2.03406e-08
-1.10787e-06
3.40167e-06
-2.75173e-06
6.31288e-06
-4.44542e-06
8.35135e-06
-5.97749e-06
9.80664e-06
-7.18802e-06
1.02926e-05
-8.01445e-06
9.74028e-06
-8.49422e-06
8.40939e-06
-8.71424e-06
6.63448e-06
-8.77826e-06
4.66591e-06
-8.7836e-06
2.65203e-06
-8.81312e-06
6.52622e-07
-8.88549e-06
-1.36211e-06
-9.02055e-06
-3.43417e-06
-9.22957e-06
-5.61233e-06
-9.45564e-06
-7.96476e-06
-9.46697e-06
-1.05207e-05
-8.74439e-06
-1.30322e-05
-6.53056e-06
-1.44271e-05
-2.42077e-06
-1.21254e-05
-2.44112e-06
-9.33314e-07
4.33498e-06
-2.34166e-06
7.72122e-06
-3.72584e-06
9.73553e-06
-4.90242e-06
1.09832e-05
-5.77043e-06
1.11606e-05
-6.31274e-06
1.02826e-05
-6.58626e-06
8.6829e-06
-6.68197e-06
6.73019e-06
-6.6962e-06
4.68013e-06
-6.70231e-06
2.65815e-06
-6.73643e-06
6.86739e-07
-6.81572e-06
-1.28282e-06
-6.96127e-06
-3.28862e-06
-7.20359e-06
-5.37001e-06
-7.55958e-06
-7.60878e-06
-7.93782e-06
-1.01425e-05
-7.92797e-06
-1.30421e-05
-6.71223e-06
-1.56428e-05
-3.58296e-06
-1.52546e-05
-6.02408e-06
-6.23412e-07
4.95839e-06
-1.68377e-06
8.78159e-06
-2.71498e-06
1.07667e-05
-3.55234e-06
1.18206e-05
-4.14021e-06
1.17485e-05
-4.48851e-06
1.06309e-05
-4.65595e-06
8.85034e-06
-4.72097e-06
6.79522e-06
-4.75614e-06
4.7153e-06
-4.80528e-06
2.70729e-06
-4.87865e-06
7.60105e-07
-4.98275e-06
-1.17872e-06
-5.12754e-06
-3.14382e-06
-5.34173e-06
-5.15583e-06
-5.68034e-06
-7.27017e-06
-6.15656e-06
-9.66626e-06
-6.55172e-06
-1.26469e-05
-6.12447e-06
-1.607e-05
-3.9212e-06
-1.74579e-05
-9.94527e-06
-2.31823e-07
5.19021e-06
-8.91262e-07
9.44102e-06
-1.56169e-06
1.14372e-05
-2.09022e-06
1.23491e-05
-2.44899e-06
1.21073e-05
-2.66217e-06
1.08441e-05
-2.77791e-06
8.96608e-06
-2.84951e-06
6.86682e-06
-2.92179e-06
4.78758e-06
-3.01691e-06
2.80241e-06
-3.13767e-06
8.80863e-07
-3.28377e-06
-1.03262e-06
-3.45544e-06
-2.97215e-06
-3.66502e-06
-4.94624e-06
-3.96341e-06
-6.97179e-06
-4.43266e-06
-9.19701e-06
-5.01967e-06
-1.20599e-05
-5.12181e-06
-1.59679e-05
-3.55711e-06
-1.90226e-05
-1.35024e-05
1.63633e-07
5.02658e-06
-6.94663e-08
9.67412e-06
-4.01803e-07
1.17695e-05
-6.52248e-07
1.25995e-05
-8.0661e-07
1.22616e-05
-8.95962e-07
1.09334e-05
-9.59744e-07
9.02986e-06
-1.0299e-06
6.93698e-06
-1.12307e-06
4.88075e-06
-1.24703e-06
2.92636e-06
-1.40423e-06
1.03806e-06
-1.59684e-06
-8.40006e-07
-1.8235e-06
-2.74549e-06
-2.08222e-06
-4.68753e-06
-2.40069e-06
-6.65331e-06
-2.87116e-06
-8.72655e-06
-3.5578e-06
-1.13733e-05
-4.02448e-06
-1.55012e-05
-3.02517e-06
-2.00219e-05
-1.65276e-05
5.00836e-07
4.52575e-06
6.98707e-07
9.47625e-06
7.42006e-07
1.17262e-05
7.77766e-07
1.25638e-05
8.22849e-07
1.22165e-05
8.51835e-07
1.09044e-05
8.44932e-07
9.03676e-06
7.93889e-07
6.98802e-06
6.99829e-07
4.97481e-06
5.64604e-07
3.06159e-06
3.83239e-07
1.21943e-06
1.49539e-07
-6.06307e-07
-1.38278e-07
-2.45767e-06
-4.86871e-07
-4.33894e-06
-9.00512e-07
-6.23967e-06
-1.42371e-06
-8.20335e-06
-2.2038e-06
-1.05932e-05
-2.9545e-06
-1.47505e-05
-2.46125e-06
-2.05152e-05
-1.89888e-05
7.56643e-07
3.7691e-06
1.35456e-06
8.87834e-06
1.7477e-06
1.13331e-05
2.0776e-06
1.22339e-05
2.35116e-06
1.1943e-05
2.53801e-06
1.07176e-05
2.62987e-06
8.9449e-06
2.63747e-06
6.98042e-06
2.57505e-06
5.03723e-06
2.44957e-06
3.18707e-06
2.25378e-06
1.41522e-06
1.97367e-06
-3.26202e-07
1.60948e-06
-2.09348e-06
1.15616e-06
-3.88561e-06
6.09079e-07
-5.69259e-06
-8.36186e-08
-7.51065e-06
-9.57459e-07
-9.71933e-06
-1.9206e-06
-1.37874e-05
-1.92592e-06
-2.05099e-05
-2.09147e-05
8.71478e-07
2.89762e-06
1.81156e-06
7.93825e-06
2.55403e-06
1.05906e-05
3.19581e-06
1.15921e-05
3.74425e-06
1.13946e-05
4.15597e-06
1.03059e-05
4.41497e-06
8.68591e-06
4.53523e-06
6.86015e-06
4.53996e-06
5.0325e-06
4.44463e-06
3.28241e-06
4.24743e-06
1.61242e-06
3.91669e-06
4.5356e-09
3.47172e-06
-1.64851e-06
2.8874e-06
-3.30129e-06
2.1645e-06
-4.96969e-06
1.32131e-06
-6.66747e-06
2.66785e-07
-8.6648e-06
-9.59243e-07
-1.25614e-05
-1.42775e-06
-2.00413e-05
-2.23425e-05
8.07356e-07
2.09027e-06
1.95616e-06
6.78944e-06
3.00002e-06
9.54674e-06
3.97468e-06
1.06174e-05
4.85304e-06
1.05162e-05
5.56896e-06
9.58996e-06
6.0832e-06
8.17167e-06
6.39876e-06
6.5446e-06
6.53674e-06
4.89452e-06
6.5155e-06
3.30365e-06
6.33375e-06
1.79417e-06
5.98847e-06
3.49812e-07
5.44751e-06
-1.10755e-06
4.71757e-06
-2.57134e-06
3.79061e-06
-4.04273e-06
2.69531e-06
-5.57217e-06
1.39096e-06
-7.36045e-06
-1.54469e-07
-1.10159e-05
-9.13151e-07
-1.92827e-05
-2.32556e-05
5.78367e-07
1.5119e-06
1.76178e-06
5.60603e-06
3.102e-06
8.20652e-06
4.45498e-06
9.26446e-06
5.72325e-06
9.24792e-06
6.80816e-06
8.50505e-06
7.64424e-06
7.33559e-06
8.21885e-06
5.96998e-06
8.54455e-06
4.56882e-06
8.63842e-06
3.20978e-06
8.50738e-06
1.9252e-06
8.14885e-06
7.08339e-07
7.51898e-06
-4.77675e-07
6.63484e-06
-1.6872e-06
5.48364e-06
-2.89153e-06
4.10628e-06
-4.19481e-06
2.57475e-06
-5.82892e-06
9.59109e-07
-9.40029e-06
-1.43477e-07
-1.81801e-05
-2.33991e-05
1.52586e-07
1.35931e-06
1.04195e-06
4.71666e-06
2.52134e-06
6.72712e-06
4.2458e-06
7.54e-06
5.9703e-06
7.52342e-06
7.50725e-06
6.96809e-06
8.75398e-06
6.08886e-06
9.68075e-06
5.04321e-06
1.02828e-05
3.9668e-06
1.05718e-05
2.92072e-06
1.0554e-05
1.94301e-06
1.02351e-05
1.02725e-06
9.57007e-06
1.87376e-07
8.57942e-06
-6.96551e-07
7.25416e-06
-1.56627e-06
5.64578e-06
-2.58643e-06
3.91446e-06
-4.09759e-06
2.24221e-06
-7.72805e-06
6.53698e-07
-1.65916e-05
-2.27454e-05
-5.1775e-07
1.87706e-06
2.01499e-07
3.99742e-06
1.75973e-06
5.1689e-06
3.82648e-06
5.47324e-06
5.98531e-06
5.3646e-06
7.94974e-06
5.00366e-06
9.58323e-06
4.45538e-06
1.08444e-05
3.78205e-06
1.17158e-05
3.09538e-06
1.2214e-05
2.42255e-06
1.23427e-05
1.81425e-06
1.21221e-05
1.24791e-06
1.15753e-05
7.34129e-07
1.06741e-05
2.04634e-07
9.42295e-06
-3.15091e-07
7.89397e-06
-1.05745e-06
6.27294e-06
-2.47656e-06
4.45949e-06
-5.91459e-06
2.05674e-06
-1.41888e-05
-2.06887e-05
-4.17995e-06
6.05701e-06
-3.64279e-06
3.46026e-06
-1.24616e-06
2.77227e-06
1.5548e-06
2.67229e-06
4.2972e-06
2.62219e-06
6.83462e-06
2.46624e-06
9.05386e-06
2.23613e-06
1.08948e-05
1.94113e-06
1.23391e-05
1.65103e-06
1.3414e-05
1.34766e-06
1.41366e-05
1.09168e-06
1.45515e-05
8.3298e-07
1.46468e-05
6.38882e-07
1.44318e-05
4.19628e-07
1.39008e-05
2.15938e-07
1.30693e-05
-2.25977e-07
1.19261e-05
-1.33334e-06
1.01136e-05
-4.1021e-06
5.63833e-06
-9.71359e-06
-1.50503e-05
6.05701e-06
9.51727e-06
1.22895e-05
1.49618e-05
1.7584e-05
2.00503e-05
2.22864e-05
2.42275e-05
2.58785e-05
2.72262e-05
2.83179e-05
2.91509e-05
2.97898e-05
3.02094e-05
3.04253e-05
3.01993e-05
2.8866e-05
2.47639e-05
1.50503e-05
)
;

boundaryField
{
    movingWall
    {
        type            calculated;
        value           uniform 0;
    }
    fixedWalls
    {
        type            calculated;
        value           uniform 0;
    }
    frontAndBack
    {
        type            empty;
        value           nonuniform List<scalar> 0();
    }
}


// ************************************************************************* //
