/*--------------------------------*- C++ -*----------------------------------*\
| =========                 |                                                 |
| \\      /  F ield         | OpenFOAM: The Open Source CFD Toolbox           |
|  \\    /   O peration     | Version:  2212                                  |
|   \\  /    A nd           | Website:  www.openfoam.com                      |
|    \\/     M anipulation  |                                                 |
\*---------------------------------------------------------------------------*/
FoamFile
{
    version     2.0;
    format      ascii;
    arch        "LSB;label=32;scalar=64";
    class       volVectorField;
    location    "5.4";
    object      U;
}
// * * * * * * * * * * * * * * * * * * * * * * * * * * * * * * * * * * * * * //

dimensions      [0 1 -1 0 0 0 0];

internalField   nonuniform List<vector> 
400
(
(0.00167637 -0.00167891 0)
(0.00482083 -0.00188619 0)
(0.0065629 -0.0011973 0)
(0.0056434 -0.000572832 0)
(0.00154375 0.000186055 0)
(-0.00684469 0.00173895 0)
(-0.0205971 0.00477695 0)
(-0.0394909 0.00871519 0)
(-0.0607217 0.0112694 0)
(-0.0790282 0.0104994 0)
(-0.0897094 0.0067751 0)
(-0.0903874 0.00168029 0)
(-0.0801959 -0.00359728 0)
(-0.0600145 -0.00825365 0)
(-0.0335887 -0.0108297 0)
(-0.00539133 -0.00978782 0)
(0.0166195 -0.0047864 0)
(0.0243914 0.00275799 0)
(0.0161445 0.00645478 0)
(0.00431103 0.00470856 0)
(0.00171015 -0.00504403 0)
(0.00313378 -0.00400958 0)
(-0.00045527 0.000597693 0)
(-0.0113575 0.00643816 0)
(-0.0314183 0.0140291 0)
(-0.0610804 0.023727 0)
(-0.096706 0.0329917 0)
(-0.131263 0.0370225 0)
(-0.158745 0.03347 0)
(-0.175871 0.0233874 0)
(-0.181236 0.00912896 0)
(-0.174897 -0.00694284 0)
(-0.157428 -0.0231064 0)
(-0.129573 -0.0368404 0)
(-0.0935943 -0.0445026 0)
(-0.0522295 -0.041805 0)
(-0.011471 -0.026347 0)
(0.0168082 -0.00132891 0)
(0.0178267 0.0161719 0)
(0.00553435 0.0147909 0)
(-0.000249722 -0.00574028 0)
(-0.00540068 0.000837195 0)
(-0.0196179 0.0142968 0)
(-0.0444696 0.0311878 0)
(-0.0802312 0.0493505 0)
(-0.122008 0.0641924 0)
(-0.16208 0.0704146 0)
(-0.19495 0.0659218 0)
(-0.218511 0.0521271 0)
(-0.232168 0.0315221 0)
(-0.235933 0.0064583 0)
(-0.230473 -0.021023 0)
(-0.216099 -0.0487463 0)
(-0.192307 -0.0730853 0)
(-0.158833 -0.0888975 0)
(-0.115641 -0.0891436 0)
(-0.0645375 -0.0670126 0)
(-0.013861 -0.0227325 0)
(0.00945244 0.0178347 0)
(0.00415442 0.0235325 0)
(-0.00347221 0.000500754 0)
(-0.017502 0.0172604 0)
(-0.0434633 0.0414482 0)
(-0.0795548 0.0680685 0)
(-0.122737 0.0909803 0)
(-0.165543 0.103649 0)
(-0.201546 0.102721 0)
(-0.228818 0.0895309 0)
(-0.247621 0.067243 0)
(-0.258559 0.0385649 0)
(-0.262469 0.0053765 0)
(-0.260157 -0.0309862 0)
(-0.251562 -0.0682685 0)
(-0.235636 -0.103525 0)
(-0.21039 -0.131275 0)
(-0.17312 -0.142716 0)
(-0.121267 -0.125671 0)
(-0.0568105 -0.0708706 0)
(-0.00101093 0.00347165 0)
(0.00474137 0.0281801 0)
(-0.00665237 0.0148122 0)
(-0.0286797 0.0440825 0)
(-0.0631706 0.0769674 0)
(-0.10425 0.108708 0)
(-0.146974 0.130951 0)
(-0.184196 0.137936 0)
(-0.212473 0.129273 0)
(-0.232205 0.108567 0)
(-0.244683 0.0796864 0)
(-0.251634 0.0454196 0)
(-0.254747 0.00730584 0)
(-0.254946 -0.0338399 0)
(-0.252005 -0.0768496 0)
(-0.245377 -0.120403 0)
(-0.232248 -0.160524 0)
(-0.208 -0.18876 0)
(-0.166586 -0.189779 0)
(-0.103322 -0.142791 0)
(-0.0221844 -0.0389159 0)
(0.00736556 0.0270283 0)
(-0.00849078 0.0348579 0)
(-0.0350968 0.0765415 0)
(-0.072926 0.114744 0)
(-0.113002 0.147408 0)
(-0.150179 0.165705 0)
(-0.178975 0.165651 0)
(-0.198441 0.149478 0)
(-0.210131 0.122277 0)
(-0.216029 0.088394 0)
(-0.218621 0.0508172 0)
(-0.219872 0.0110163 0)
(-0.220784 -0.0305817 0)
(-0.22156 -0.0744453 0)
(-0.222297 -0.120949 0)
(-0.220801 -0.168869 0)
(-0.211978 -0.212716 0)
(-0.187738 -0.238293 0)
(-0.139486 -0.218331 0)
(-0.0627591 -0.11887 0)
(0.00581948 0.0141484 0)
(-0.00826807 0.056932 0)
(-0.0352463 0.109837 0)
(-0.0716504 0.150207 0)
(-0.106802 0.180819 0)
(-0.136363 0.193487 0)
(-0.156708 0.186107 0)
(-0.168557 0.162982 0)
(-0.174027 0.130257 0)
(-0.175531 0.0926971 0)
(-0.17557 0.0533199 0)
(-0.175652 0.0133662 0)
(-0.176457 -0.0271078 0)
(-0.178534 -0.0692396 0)
(-0.18242 -0.114301 0)
(-0.187466 -0.163404 0)
(-0.190034 -0.215397 0)
(-0.182229 -0.261304 0)
(-0.154051 -0.274888 0)
(-0.0992367 -0.205717 0)
(-0.00890256 -0.0146616 0)
(-0.00611305 0.0774658 0)
(-0.0297011 0.140313 0)
(-0.0612512 0.18087 0)
(-0.0896447 0.20791 0)
(-0.111591 0.21448 0)
(-0.125071 0.200171 0)
(-0.131695 0.170973 0)
(-0.133768 0.133865 0)
(-0.133748 0.0938393 0)
(-0.133578 0.0536077 0)
(-0.133944 0.0138942 0)
(-0.135032 -0.0256634 0)
(-0.137301 -0.0660784 0)
(-0.141441 -0.108568 0)
(-0.148062 -0.155108 0)
(-0.155845 -0.208059 0)
(-0.1588 -0.265469 0)
(-0.146549 -0.307782 0)
(-0.112098 -0.276934 0)
(-0.0309058 -0.0752678 0)
(-0.00271529 0.0934283 0)
(-0.0203462 0.165336 0)
(-0.0450102 0.205198 0)
(-0.066143 0.22812 0)
(-0.08136 0.229065 0)
(-0.0898009 0.209092 0)
(-0.09337 0.175367 0)
(-0.0942059 0.135376 0)
(-0.094405 0.0941197 0)
(-0.0951363 0.0538268 0)
(-0.0964472 0.014593 0)
(-0.0982459 -0.0243538 0)
(-0.100704 -0.0637828 0)
(-0.104328 -0.104383 0)
(-0.110265 -0.147783 0)
(-0.119242 -0.197932 0)
(-0.128103 -0.259276 0)
(-0.126365 -0.32305 0)
(-0.107356 -0.33441 0)
(-0.0372919 -0.163196 0)
(0.00122165 0.102533 0)
(-0.00890154 0.183123 0)
(-0.0255524 0.222703 0)
(-0.0395065 0.242256 0)
(-0.0489485 0.239004 0)
(-0.0537831 0.215038 0)
(-0.0557024 0.1783 0)
(-0.0563555 0.136643 0)
(-0.0572582 0.0949816 0)
(-0.0589552 0.0550116 0)
(-0.0612194 0.0162759 0)
(-0.0639065 -0.0222699 0)
(-0.0670103 -0.061269 0)
(-0.0707135 -0.100956 0)
(-0.0759529 -0.142041 0)
(-0.0843029 -0.188187 0)
(-0.095866 -0.247742 0)
(-0.100546 -0.323866 0)
(-0.0950952 -0.371846 0)
(-0.0308944 -0.242265 0)
(0.00510473 0.103682 0)
(0.00296044 0.192687 0)
(-0.00535844 0.233165 0)
(-0.0124495 0.250257 0)
(-0.016819 0.244152 0)
(-0.0186844 0.21794 0)
(-0.0193442 0.179891 0)
(-0.0198399 0.137853 0)
(-0.02111 0.0964914 0)
(-0.0233265 0.0571224 0)
(-0.0262013 0.0190146 0)
(-0.029672 -0.0189702 0)
(-0.0337552 -0.0575208 0)
(-0.0383967 -0.0967201 0)
(-0.0441478 -0.136519 0)
(-0.0522512 -0.179351 0)
(-0.0656279 -0.23495 0)
(-0.0741751 -0.317592 0)
(-0.0811631 -0.396323 0)
(-0.0229299 -0.306781 0)
(0.00842514 0.0972211 0)
(0.0141791 0.193668 0)
(0.0140658 0.236674 0)
(0.0136751 0.253024 0)
(0.0142994 0.245921 0)
(0.0154974 0.219215 0)
(0.0163599 0.181179 0)
(0.0164166 0.139503 0)
(0.0152766 0.098659 0)
(0.0129928 0.0599008 0)
(0.00982349 0.0225323 0)
(0.00572616 -0.0145858 0)
(0.000557599 -0.052269 0)
(-0.00554198 -0.0906434 0)
(-0.0129815 -0.129362 0)
(-0.0219242 -0.169466 0)
(-0.0376774 -0.219942 0)
(-0.048753 -0.30393 0)
(-0.0679129 -0.408078 0)
(-0.0144634 -0.359659 0)
(0.0102802 0.0842883 0)
(0.023332 0.186089 0)
(0.0309744 0.232806 0)
(0.0368862 0.249575 0)
(0.0425292 0.242711 0)
(0.0474642 0.216929 0)
(0.0508797 0.180185 0)
(0.0525306 0.139823 0)
(0.0523704 0.100154 0)
(0.0506123 0.0625027 0)
(0.0474864 0.0263509 0)
(0.0428859 -0.00938247 0)
(0.0366412 -0.0456137 0)
(0.0288677 -0.0825295 0)
(0.0187737 -0.11978 0)
(0.0074962 -0.157621 0)
(-0.0118808 -0.203639 0)
(-0.0243315 -0.285922 0)
(-0.0558913 -0.410604 0)
(-0.00615311 -0.401534 0)
(0.00982483 0.0671128 0)
(0.0289079 0.170331 0)
(0.0441867 0.221751 0)
(0.0566891 0.240772 0)
(0.0679434 0.235816 0)
(0.0775904 0.212457 0)
(0.0847689 0.178187 0)
(0.0891772 0.139895 0)
(0.0908939 0.101824 0)
(0.0902256 0.0655309 0)
(0.0875095 0.03087 0)
(0.0824653 -0.00318723 0)
(0.0749828 -0.0372086 0)
(0.0653417 -0.0717905 0)
(0.0521724 -0.106751 0)
(0.0373192 -0.141991 0)
(0.0129604 -0.183505 0)
(-7.13956e-05 -0.262709 0)
(-0.0448762 -0.406344 0)
(0.00273936 -0.435965 0)
(0.00689044 0.0493622 0)
(0.0292276 0.14869 0)
(0.0509019 0.203221 0)
(0.0697198 0.224057 0)
(0.0871388 0.221167 0)
(0.102776 0.201013 0)
(0.115386 0.170447 0)
(0.124289 0.135609 0)
(0.129399 0.100498 0)
(0.130968 0.0667965 0)
(0.129268 0.0347496 0)
(0.124341 0.0035267 0)
(0.115736 -0.0271831 0)
(0.104059 -0.058249 0)
(0.0870629 -0.0897277 0)
(0.0679736 -0.122243 0)
(0.0380275 -0.160169 0)
(0.0236781 -0.236663 0)
(-0.0345385 -0.398644 0)
(0.0134353 -0.4642 0)
(0.00237174 0.0346632 0)
(0.0235219 0.123728 0)
(0.0507382 0.179618 0)
(0.076386 0.202523 0)
(0.100974 0.202172 0)
(0.123781 0.185771 0)
(0.143158 0.159741 0)
(0.157891 0.129361 0)
(0.167567 0.0982451 0)
(0.172398 0.0680867 0)
(0.172336 0.0394769 0)
(0.168098 0.0120025 0)
(0.15829 -0.0146938 0)
(0.144613 -0.0413536 0)
(0.123414 -0.0682744 0)
(0.0999886 -0.0969934 0)
(0.0642725 -0.132141 0)
(0.0468097 -0.207065 0)
(-0.0228204 -0.386868 0)
(0.0284765 -0.485412 0)
(-0.00341666 0.0287036 0)
(0.00998799 0.101437 0)
(0.0369163 0.148462 0)
(0.0686829 0.16913 0)
(0.101483 0.170307 0)
(0.133111 0.158013 0)
(0.161018 0.137602 0)
(0.183476 0.113245 0)
(0.199448 0.0880253 0)
(0.209306 0.0634709 0)
(0.212193 0.0403258 0)
(0.209918 0.0184615 0)
(0.199685 -0.00249621 0)
(0.18511 -0.0230266 0)
(0.160401 -0.0436076 0)
(0.13391 -0.0673192 0)
(0.0925399 -0.101264 0)
(0.0696844 -0.179699 0)
(-0.00447497 -0.369919 0)
(0.0521079 -0.491571 0)
(-0.0139523 0.0186048 0)
(-0.00750796 0.0881945 0)
(0.0191041 0.124083 0)
(0.056222 0.137116 0)
(0.0972563 0.136657 0)
(0.137521 0.12746 0)
(0.173664 0.112815 0)
(0.203404 0.0950673 0)
(0.225215 0.0766441 0)
(0.240235 0.0585564 0)
(0.246236 0.0417603 0)
(0.247136 0.0261433 0)
(0.237839 0.011865 0)
(0.226075 -0.00186242 0)
(0.201192 -0.0158447 0)
(0.177352 -0.0347567 0)
(0.13317 -0.0675371 0)
(0.107645 -0.14585 0)
(0.0373854 -0.326103 0)
(0.0923322 -0.455866 0)
(-0.105977 0.0824797 0)
(-0.0777214 0.0690438 0)
(-0.0485774 0.0733315 0)
(0.00368253 0.0777927 0)
(0.0570883 0.0780912 0)
(0.109706 0.0738137 0)
(0.156768 0.0664844 0)
(0.199026 0.0570979 0)
(0.23106 0.047453 0)
(0.259149 0.0378321 0)
(0.274852 0.0292085 0)
(0.290002 0.0212622 0)
(0.290394 0.0145457 0)
(0.294563 0.00819085 0)
(0.278373 0.00125077 0)
(0.271272 -0.00988849 0)
(0.232078 -0.0354602 0)
(0.218029 -0.0953728 0)
(0.150189 -0.229723 0)
(0.170669 -0.341468 0)
(0.129992 0.10376 0)
(0.158369 0.075272 0)
(0.212245 0.0532784 0)
(0.270751 0.0416631 0)
(0.323293 0.0359393 0)
(0.375676 0.031962 0)
(0.420204 0.0289224 0)
(0.465452 0.0255836 0)
(0.49849 0.0229069 0)
(0.533694 0.0197176 0)
(0.55311 0.0175604 0)
(0.578918 0.0146275 0)
(0.585076 0.0131891 0)
(0.603456 0.0103747 0)
(0.594935 0.00941593 0)
(0.603504 0.00502869 0)
(0.567762 0.00011232 0)
(0.547651 -0.0183025 0)
(0.43576 -0.0504147 0)
(0.336787 -0.101393 0)
)
;

boundaryField
{
    movingWall
    {
        type            fixedValue;
        value           uniform (1 0 0);
    }
    fixedWalls
    {
        type            noSlip;
    }
    frontAndBack
    {
        type            empty;
    }
}


// ************************************************************************* //
