/*--------------------------------*- C++ -*----------------------------------*\
| =========                 |                                                 |
| \\      /  F ield         | OpenFOAM: The Open Source CFD Toolbox           |
|  \\    /   O peration     | Version:  2212                                  |
|   \\  /    A nd           | Website:  www.openfoam.com                      |
|    \\/     M anipulation  |                                                 |
\*---------------------------------------------------------------------------*/
FoamFile
{
    version     2.0;
    format      ascii;
    arch        "LSB;label=32;scalar=64";
    class       volScalarField;
    location    "17.7";
    object      p;
}
// * * * * * * * * * * * * * * * * * * * * * * * * * * * * * * * * * * * * * //

dimensions      [0 2 -2 0 0 0 0];

internalField   nonuniform List<scalar> 
400
(
3.38704e-08
-0.000151003
-0.000535088
-0.00107229
-0.00173302
-0.00249451
-0.00318564
-0.00359822
-0.00356599
-0.00293472
-0.00154916
0.0006188
0.00324903
0.00551354
0.0065332
0.00592229
0.00400145
0.00214901
0.00111001
0.00104096
0.000115881
-5.85378e-05
-0.000377483
-0.000764659
-0.00124458
-0.00188871
-0.00270684
-0.00354418
-0.00408068
-0.00393909
-0.00284709
-0.000825489
0.00168878
0.00396035
0.00512413
0.00474249
0.00310236
0.00137411
0.000592519
0.000683565
0.000535995
0.000264525
-7.7767e-05
-0.000560127
-0.00134784
-0.00258125
-0.00421983
-0.00598453
-0.00740335
-0.00794468
-0.00726498
-0.00546275
-0.00289237
-0.000195336
0.00179107
0.00242707
0.00170812
0.000501408
-0.000396783
-0.000393489
0.00115151
0.000740821
0.000191431
-0.000775312
-0.00245172
-0.00493854
-0.00799595
-0.0111214
-0.0137043
-0.0151779
-0.0152078
-0.0138408
-0.0112945
-0.00802992
-0.00475309
-0.00221058
-0.000871266
-0.00070711
-0.00128972
-0.00191905
0.00158291
0.000973303
-2.33301e-05
-0.00192464
-0.00500735
-0.0091809
-0.0139147
-0.0184808
-0.0222172
-0.024654
-0.0255296
-0.0247238
-0.0223644
-0.0187444
-0.0143055
-0.0096566
-0.00559301
-0.0029498
-0.00219416
-0.00401888
0.00129297
0.000444614
-0.00119782
-0.004305
-0.0090058
-0.0148815
-0.0210738
-0.0267164
-0.0311924
-0.0341797
-0.0355466
-0.0351906
-0.0331979
-0.0297196
-0.0249003
-0.0189619
-0.0125062
-0.00694925
-0.00440179
-0.0065251
-4.87092e-05
-0.00114798
-0.00349997
-0.00779751
-0.0139334
-0.0211154
-0.0282373
-0.034409
-0.03913
-0.0422333
-0.0437211
-0.0436117
-0.0419739
-0.0388798
-0.0343118
-0.0281581
-0.0205399
-0.0127037
-0.00785567
-0.00774885
-0.0024509
-0.00374263
-0.00669916
-0.0119141
-0.0190408
-0.0269829
-0.0345054
-0.0407805
-0.0454522
-0.0484785
-0.0499412
-0.0499325
-0.0485317
-0.0457896
-0.0416634
-0.0359277
-0.0283265
-0.0193719
-0.0118231
-0.00798136
-0.00553809
-0.00691571
-0.0102643
-0.0160227
-0.0236592
-0.0318907
-0.0394527
-0.0456144
-0.050139
-0.0530592
-0.0544884
-0.0545285
-0.0532542
-0.0507272
-0.0469633
-0.0418131
-0.0348688
-0.0259486
-0.01671
-0.00999534
-0.00873424
-0.0100864
-0.0135983
-0.019543
-0.0272874
-0.0354883
-0.0429135
-0.0489113
-0.0533112
-0.0561692
-0.0575932
-0.0576644
-0.0564459
-0.0540127
-0.0504525
-0.0457616
-0.0396351
-0.0315249
-0.0223221
-0.0143407
-0.0115046
-0.0127584
-0.0162199
-0.0220551
-0.0296081
-0.0375898
-0.0448278
-0.0507008
-0.0550444
-0.0578959
-0.0593383
-0.0594298
-0.0582205
-0.0557904
-0.0522882
-0.0478535
-0.0424322
-0.0353836
-0.0271988
-0.0191802
-0.0135498
-0.0146192
-0.0178565
-0.0233162
-0.0304318
-0.0380638
-0.045119
-0.0509511
-0.0553306
-0.0582421
-0.0597298
-0.0598322
-0.0585901
-0.0560846
-0.0525169
-0.0481392
-0.0432078
-0.0370572
-0.0300327
-0.022418
-0.0148378
-0.0155683
-0.0183524
-0.0232109
-0.0296941
-0.0368797
-0.0437657
-0.0496414
-0.0541562
-0.0572024
-0.0587715
-0.0588786
-0.0575593
-0.0549172
-0.0511783
-0.0466568
-0.0419663
-0.0363009
-0.0302268
-0.0228966
-0.0154682
-0.0157225
-0.0177777
-0.0217468
-0.0273903
-0.0340323
-0.0407514
-0.0467415
-0.051494
-0.0547695
-0.0564835
-0.0566245
-0.0552028
-0.052354
-0.0483471
-0.0435826
-0.0387313
-0.033142
-0.0281002
-0.0202798
-0.0155748
-0.0152986
-0.0163384
-0.0190882
-0.0236536
-0.0296347
-0.0361723
-0.0423366
-0.0474286
-0.0510405
-0.0529812
-0.0531846
-0.051692
-0.0485923
-0.0442275
-0.0390545
-0.0337823
-0.028072
-0.0242319
-0.0143854
-0.0152771
-0.0145505
-0.0142611
-0.0154263
-0.0186852
-0.0238951
-0.030232
-0.0366154
-0.0421386
-0.0462021
-0.0484903
-0.0488673
-0.047354
-0.0440217
-0.0392495
-0.0335194
-0.0276416
-0.0216296
-0.0180538
-0.00383317
-0.0146624
-0.0136185
-0.0117072
-0.0110814
-0.012954
-0.0173807
-0.0235345
-0.030171
-0.0361939
-0.0408122
-0.0435794
-0.0442625
-0.0428514
-0.039377
-0.0341858
-0.0276901
-0.0206825
-0.0132763
-0.00678591
0.0160528
-0.0145835
-0.0126575
-0.00864876
-0.00623489
-0.00691035
-0.0107461
-0.0168183
-0.0237404
-0.0302992
-0.0355399
-0.0389043
-0.0400357
-0.0388782
-0.0354485
-0.0298963
-0.0222761
-0.0128728
-0.000688227
0.016695
0.0570638
-0.0117949
-0.011831
-0.00572637
-0.00177527
-0.00176524
-0.005405
-0.0115755
-0.0188153
-0.025876
-0.031688
-0.0356629
-0.0373625
-0.0366859
-0.0333558
-0.0272246
-0.0175418
-0.00314835
0.0204903
0.0607044
0.129821
-0.0295171
-0.01063
-0.000609125
0.00308058
0.00244801
-0.00155727
-0.00799976
-0.0155538
-0.0229766
-0.0291743
-0.0335325
-0.0355886
-0.0352017
-0.0319562
-0.025228
-0.0128603
0.0094225
0.0511715
0.122878
0.226076
)
;

boundaryField
{
    movingWall
    {
        type            zeroGradient;
    }
    fixedWalls
    {
        type            zeroGradient;
    }
    frontAndBack
    {
        type            empty;
    }
}


// ************************************************************************* //
