/*--------------------------------*- C++ -*----------------------------------*\
| =========                 |                                                 |
| \\      /  F ield         | OpenFOAM: The Open Source CFD Toolbox           |
|  \\    /   O peration     | Version:  2212                                  |
|   \\  /    A nd           | Website:  www.openfoam.com                      |
|    \\/     M anipulation  |                                                 |
\*---------------------------------------------------------------------------*/
FoamFile
{
    version     2.0;
    format      ascii;
    arch        "LSB;label=32;scalar=64";
    class       volScalarField;
    location    "8.1";
    object      p;
}
// * * * * * * * * * * * * * * * * * * * * * * * * * * * * * * * * * * * * * //

dimensions      [0 2 -2 0 0 0 0];

internalField   nonuniform List<scalar> 
400
(
6.27895e-07
-0.000150339
-0.000534355
-0.00107148
-0.0017321
-0.00249345
-0.00318447
-0.00359698
-0.00356474
-0.00293352
-0.0015481
0.000619622
0.0032497
0.00551434
0.00653451
0.0059244
0.00400424
0.00215214
0.00111317
0.00104404
0.000116542
-5.78503e-05
-0.000376737
-0.000763862
-0.00124373
-0.00188776
-0.00270572
-0.00354285
-0.0040792
-0.00393761
-0.00284575
-0.000824392
0.00168971
0.00396139
0.00512566
0.00474477
0.00310538
0.00137734
0.000595753
0.000686679
0.000536577
0.000265173
-7.70546e-05
-0.000559346
-0.00134692
-0.00258005
-0.00421822
-0.00598244
-0.00740086
-0.00794204
-0.00726248
-0.00546051
-0.0028904
-0.000193456
0.00179318
0.00242967
0.00171127
0.0005048
-0.000393376
-0.000390227
0.00115191
0.000741301
0.000192043
-0.00077448
-0.00245047
-0.0049366
-0.00799313
-0.0111176
-0.0136997
-0.0151729
-0.0152028
-0.0138361
-0.0112903
-0.00802621
-0.00474968
-0.00220725
-0.000867881
-0.000703674
-0.00128623
-0.00191563
0.00158298
0.000973532
-2.28e-05
-0.00192354
-0.00500531
-0.00917755
-0.0139098
-0.0184744
-0.0222096
-0.0246455
-0.0255209
-0.0247155
-0.0223568
-0.0187378
-0.0142999
-0.00965184
-0.00558892
-0.00294618
-0.00219076
-0.00401524
0.00129281
0.000444705
-0.00119717
-0.00430327
-0.00900246
-0.0148762
-0.0210662
-0.0267067
-0.031181
-0.0341671
-0.0355334
-0.0351778
-0.0331862
-0.0297094
-0.0248917
-0.0189549
-0.0125007
-0.006945
-0.00439814
-0.0065211
-4.88341e-05
-0.00114774
-0.00349885
-0.00779477
-0.0139283
-0.0211076
-0.0282267
-0.0343956
-0.0391143
-0.0422161
-0.0437032
-0.0435941
-0.0419575
-0.0388654
-0.0342996
-0.0281483
-0.0205324
-0.0126982
-0.0078515
-0.00774517
-0.00245062
-0.00374189
-0.00669722
-0.01191
-0.0190338
-0.0269726
-0.0344916
-0.0407635
-0.0454324
-0.0484566
-0.0499183
-0.0499098
-0.0485104
-0.0457707
-0.0416474
-0.0359147
-0.0283166
-0.0193647
-0.0118182
-0.00797787
-0.0055371
-0.00691419
-0.0102613
-0.0160172
-0.0236503
-0.031878
-0.039436
-0.0455939
-0.0501152
-0.0530329
-0.0544608
-0.054501
-0.0532283
-0.050704
-0.0469436
-0.0417971
-0.0348564
-0.0259393
-0.0167036
-0.00999104
-0.00873243
-0.010084
-0.0135943
-0.0195362
-0.0272769
-0.0354736
-0.0428944
-0.0488881
-0.0532842
-0.0561394
-0.0575618
-0.0576331
-0.0564163
-0.053986
-0.0504297
-0.0457431
-0.0396206
-0.0315139
-0.0223141
-0.0143347
-0.0115021
-0.0127554
-0.0162151
-0.0220474
-0.0295964
-0.0375738
-0.0448072
-0.0506757
-0.0550154
-0.0578639
-0.0593046
-0.0593961
-0.0581885
-0.0557616
-0.0522636
-0.0478335
-0.0424164
-0.0353715
-0.0271896
-0.0191727
-0.0135469
-0.0146157
-0.0178513
-0.0233081
-0.0304199
-0.0380475
-0.045098
-0.0509256
-0.055301
-0.0582094
-0.0596955
-0.0597979
-0.0585575
-0.0560553
-0.0524919
-0.0481191
-0.0431922
-0.0370452
-0.0300233
-0.02241
-0.0148348
-0.0155648
-0.0183473
-0.0232031
-0.0296827
-0.036864
-0.0437455
-0.0496168
-0.0541276
-0.0571708
-0.0587383
-0.0588454
-0.0575278
-0.0548891
-0.0511547
-0.0466381
-0.0419521
-0.0362903
-0.0302185
-0.0228893
-0.0154653
-0.0157193
-0.0177732
-0.02174
-0.0273802
-0.0340184
-0.0407332
-0.0467191
-0.0514678
-0.0547404
-0.0564528
-0.0565938
-0.055174
-0.0523287
-0.0483262
-0.0435667
-0.0387201
-0.0331342
-0.0280939
-0.0202746
-0.015572
-0.0152958
-0.0163348
-0.0190829
-0.0236456
-0.0296234
-0.0361571
-0.0423175
-0.0474058
-0.051015
-0.0529542
-0.0531577
-0.0516669
-0.0485707
-0.0442104
-0.0390424
-0.0337749
-0.028068
-0.0242288
-0.0143835
-0.0152747
-0.0145482
-0.0142586
-0.0154228
-0.0186799
-0.023887
-0.0302204
-0.0366001
-0.0421199
-0.0461807
-0.0484675
-0.0488447
-0.0473333
-0.0440044
-0.0392368
-0.0335118
-0.0276386
-0.0216298
-0.0180554
-0.0038352
-0.0146603
-0.0136168
-0.0117058
-0.0110799
-0.0129514
-0.0173759
-0.0235267
-0.0301598
-0.0361794
-0.0407952
-0.0435609
-0.044244
-0.0428347
-0.0393638
-0.0341772
-0.0276866
-0.0206838
-0.0132811
-0.00679257
0.016047
-0.0145821
-0.0126563
-0.00864845
-0.00623528
-0.00691036
-0.0107445
-0.0168139
-0.0237329
-0.0302885
-0.0355266
-0.0388895
-0.040021
-0.0388651
-0.0354386
-0.0298908
-0.0222759
-0.0128776
-0.000697051
0.0166844
0.0570551
-0.0117941
-0.0118305
-0.00572725
-0.00177727
-0.0017672
-0.00540564
-0.0115737
-0.0188104
-0.0258679
-0.0316773
-0.0356506
-0.03735
-0.0366747
-0.0333476
-0.0272208
-0.0175433
-0.00315515
0.0204794
0.0606924
0.129812
-0.0295161
-0.01063
-0.000610696
0.00307784
0.00244523
-0.00155882
-0.00799895
-0.0155499
-0.0229696
-0.0291646
-0.0335211
-0.0355768
-0.0351911
-0.0319484
-0.0252242
-0.0128613
0.00941631
0.0511616
0.122867
0.226068
)
;

boundaryField
{
    movingWall
    {
        type            zeroGradient;
    }
    fixedWalls
    {
        type            zeroGradient;
    }
    frontAndBack
    {
        type            empty;
    }
}


// ************************************************************************* //
