/*--------------------------------*- C++ -*----------------------------------*\
| =========                 |                                                 |
| \\      /  F ield         | OpenFOAM: The Open Source CFD Toolbox           |
|  \\    /   O peration     | Version:  2212                                  |
|   \\  /    A nd           | Website:  www.openfoam.com                      |
|    \\/     M anipulation  |                                                 |
\*---------------------------------------------------------------------------*/
FoamFile
{
    version     2.0;
    format      ascii;
    arch        "LSB;label=32;scalar=64";
    class       volScalarField;
    location    "8.1";
    object      T;
}
// * * * * * * * * * * * * * * * * * * * * * * * * * * * * * * * * * * * * * //

dimensions      [0 0 0 1 0 0 0];

internalField   nonuniform List<scalar> 
400
(
0.830483
0.83504
0.844235
0.8577
0.873124
0.886795
0.89615
0.9012
0.903682
0.90528
0.906686
0.908087
0.909532
0.910953
0.912089
0.912504
0.91148
0.908182
0.902953
0.898653
0.836501
0.841988
0.852944
0.86846
0.884524
0.895931
0.901227
0.903047
0.903771
0.904314
0.905187
0.906681
0.908884
0.911646
0.91435
0.916035
0.91524
0.910824
0.904254
0.899437
0.845822
0.853045
0.866429
0.882393
0.894742
0.900013
0.900383
0.89895
0.897
0.895517
0.895364
0.89714
0.900869
0.906414
0.912716
0.918185
0.920147
0.915886
0.906652
0.900877
0.854905
0.86392
0.878408
0.891442
0.897434
0.896413
0.891878
0.885946
0.879974
0.875556
0.873855
0.875879
0.881388
0.89051
0.901979
0.913921
0.922806
0.923832
0.91331
0.904473
0.861946
0.872064
0.885659
0.8937
0.892904
0.885714
0.875465
0.86403
0.853524
0.845864
0.842406
0.844307
0.851267
0.863576
0.880158
0.899239
0.917364
0.928954
0.925647
0.911374
0.866744
0.877001
0.888199
0.890541
0.8832
0.869884
0.853694
0.836969
0.822421
0.812001
0.807064
0.808491
0.816262
0.830559
0.850746
0.8754
0.901662
0.924539
0.935275
0.921623
0.869677
0.879211
0.887225
0.884061
0.870869
0.851981
0.830565
0.809641
0.792193
0.78004
0.774277
0.775314
0.783297
0.798323
0.820223
0.848209
0.880079
0.911455
0.934926
0.936218
0.871253
0.879606
0.884478
0.876651
0.858564
0.834984
0.80946
0.7856
0.766406
0.753448
0.747408
0.748294
0.756132
0.77095
0.792913
0.822093
0.857421
0.895059
0.927609
0.944139
0.871895
0.878915
0.881073
0.869645
0.847837
0.820787
0.792447
0.766762
0.746628
0.733342
0.727219
0.728052
0.735685
0.749974
0.771051
0.799595
0.836196
0.878482
0.918087
0.941153
0.871915
0.877755
0.878054
0.864454
0.840297
0.810976
0.780827
0.753995
0.733257
0.719679
0.71335
0.714015
0.721444
0.735319
0.75542
0.78239
0.818234
0.863213
0.909585
0.938954
0.871505
0.876428
0.875687
0.861149
0.835915
0.805569
0.774684
0.747382
0.726282
0.712325
0.70555
0.705773
0.712811
0.726269
0.745551
0.770743
0.804464
0.849998
0.901625
0.937534
0.870778
0.875118
0.874255
0.860243
0.835434
0.805334
0.77463
0.74733
0.725966
0.711513
0.704094
0.703609
0.709925
0.72266
0.741009
0.764371
0.795155
0.83959
0.895297
0.936775
0.869736
0.873794
0.873426
0.860998
0.837868
0.809222
0.779722
0.753193
0.732071
0.717396
0.709405
0.70806
0.713303
0.72478
0.741671
0.762977
0.790274
0.831941
0.890265
0.936699
0.868311
0.87239
0.873087
0.863356
0.843364
0.817568
0.790412
0.76548
0.74512
0.730479
0.721961
0.719535
0.723282
0.732848
0.747513
0.766125
0.789571
0.827482
0.887023
0.937192
0.866383
0.870708
0.87244
0.865606
0.849504
0.827666
0.804074
0.781949
0.763429
0.749643
0.741109
0.73778
0.739806
0.746901
0.758492
0.773783
0.793157
0.826113
0.885297
0.938257
0.864054
0.86876
0.871786
0.868204
0.85681
0.840027
0.821112
0.802794
0.786953
0.774634
0.766379
0.762247
0.76227
0.766367
0.774187
0.785341
0.800329
0.827377
0.885211
0.939935
0.861791
0.866373
0.869649
0.868266
0.861094
0.849641
0.836181
0.822751
0.810752
0.801032
0.793955
0.789715
0.788177
0.789478
0.793607
0.800487
0.811562
0.833504
0.88856
0.942781
0.860177
0.86519
0.869391
0.869774
0.866275
0.859756
0.851543
0.842887
0.834697
0.827635
0.821953
0.817917
0.815517
0.814887
0.816442
0.819992
0.828261
0.845289
0.894912
0.946377
0.840343
0.861793
0.862787
0.863176
0.86142
0.858622
0.855195
0.851933
0.848891
0.846668
0.845063
0.844411
0.844601
0.845565
0.847972
0.850996
0.858656
0.871943
0.909846
0.952539
0.887663
0.901422
0.908924
0.913572
0.916226
0.917997
0.919061
0.920094
0.920871
0.921913
0.92283
0.924099
0.925261
0.926784
0.928223
0.930185
0.932607
0.937655
0.947556
0.9652
)
;

boundaryField
{
    movingWall
    {
        type            fixedValue;
        value           uniform 1;
    }
    fixedWalls
    {
        type            zeroGradient;
    }
    frontAndBack
    {
        type            empty;
    }
}


// ************************************************************************* //
