/*--------------------------------*- C++ -*----------------------------------*\
| =========                 |                                                 |
| \\      /  F ield         | OpenFOAM: The Open Source CFD Toolbox           |
|  \\    /   O peration     | Version:  2212                                  |
|   \\  /    A nd           | Website:  www.openfoam.com                      |
|    \\/     M anipulation  |                                                 |
\*---------------------------------------------------------------------------*/
FoamFile
{
    version     2.0;
    format      ascii;
    arch        "LSB;label=32;scalar=64";
    class       volVectorField;
    location    "8.1";
    object      U;
}
// * * * * * * * * * * * * * * * * * * * * * * * * * * * * * * * * * * * * * //

dimensions      [0 1 -1 0 0 0 0];

internalField   nonuniform List<vector> 
400
(
(0.00168131 -0.00168352 0)
(0.00483728 -0.00189186 0)
(0.00658905 -0.0012005 0)
(0.00567251 -0.00057498 0)
(0.0015701 0.000184118 0)
(-0.00683037 0.00173935 0)
(-0.0206077 0.00478574 0)
(-0.039538 0.00873469 0)
(-0.0608056 0.0112911 0)
(-0.0791309 0.0105117 0)
(-0.0898067 0.00677461 0)
(-0.0904591 0.00166979 0)
(-0.080225 -0.00361517 0)
(-0.0599962 -0.00827353 0)
(-0.0335263 -0.010846 0)
(-0.00529994 -0.00979486 0)
(0.0167164 -0.00477409 0)
(0.0244652 0.00277554 0)
(0.0161764 0.00647107 0)
(0.00431618 0.00471657 0)
(0.00171973 -0.00506384 0)
(0.00316055 -0.0040309 0)
(-0.000419885 0.000588456 0)
(-0.011332 0.00644149 0)
(-0.0314259 0.0140488 0)
(-0.0611459 0.023771 0)
(-0.0968382 0.0330573 0)
(-0.131448 0.0370883 0)
(-0.158959 0.0335145 0)
(-0.17609 0.0234006 0)
(-0.181439 0.00911068 0)
(-0.175069 -0.00698694 0)
(-0.157554 -0.0231699 0)
(-0.129648 -0.0369096 0)
(-0.0936145 -0.0445621 0)
(-0.0521976 -0.0418371 0)
(-0.0114053 -0.0263356 0)
(0.016884 -0.0012826 0)
(0.0178691 0.0162204 0)
(0.00554171 0.0148181 0)
(-0.000240329 -0.00577771 0)
(-0.00538266 0.000804211 0)
(-0.0196104 0.0142994 0)
(-0.0445026 0.0312334 0)
(-0.0803354 0.0494402 0)
(-0.122194 0.0643132 0)
(-0.162335 0.0705389 0)
(-0.195255 0.0660225 0)
(-0.218846 0.0521874 0)
(-0.232513 0.0315333 0)
(-0.23627 0.0064191 0)
(-0.230786 -0.0211078 0)
(-0.216374 -0.0488655 0)
(-0.192532 -0.0732189 0)
(-0.158998 -0.0890198 0)
(-0.115737 -0.0892256 0)
(-0.0645625 -0.0670291 0)
(-0.0138243 -0.0226696 0)
(0.00947947 0.0179129 0)
(0.00415539 0.0235771 0)
(-0.00347207 0.000456552 0)
(-0.0175145 0.0172422 0)
(-0.0435141 0.0414985 0)
(-0.0796766 0.0681885 0)
(-0.122949 0.0911516 0)
(-0.165838 0.103838 0)
(-0.201906 0.102894 0)
(-0.229226 0.089664 0)
(-0.248064 0.0673216 0)
(-0.259017 0.038579 0)
(-0.262925 0.00532115 0)
(-0.260594 -0.0311093 0)
(-0.251963 -0.0684443 0)
(-0.235987 -0.103731 0)
(-0.210679 -0.13148 0)
(-0.173336 -0.142882 0)
(-0.121396 -0.125762 0)
(-0.0568435 -0.0708555 0)
(-0.000988717 0.00355985 0)
(0.00474223 0.0282368 0)
(-0.00666233 0.0147853 0)
(-0.0287279 0.0441109 0)
(-0.0632853 0.07709 0)
(-0.104453 0.108912 0)
(-0.147269 0.131199 0)
(-0.184565 0.138186 0)
(-0.212901 0.129494 0)
(-0.232682 0.108739 0)
(-0.245197 0.0797924 0)
(-0.252172 0.0454465 0)
(-0.255291 0.00724458 0)
(-0.255473 -0.0339883 0)
(-0.252496 -0.0770699 0)
(-0.245818 -0.120671 0)
(-0.232626 -0.160808 0)
(-0.208307 -0.18902 0)
(-0.16681 -0.189974 0)
(-0.103444 -0.142878 0)
(-0.0221831 -0.0388586 0)
(0.00738092 0.0270966 0)
(-0.00851007 0.0348742 0)
(-0.0351744 0.0766372 0)
(-0.0730871 0.114947 0)
(-0.113255 0.147694 0)
(-0.150516 0.166025 0)
(-0.179376 0.165961 0)
(-0.198899 0.149752 0)
(-0.210642 0.122496 0)
(-0.216588 0.0885388 0)
(-0.219217 0.0508683 0)
(-0.220485 0.0109594 0)
(-0.221387 -0.030747 0)
(-0.222122 -0.0747046 0)
(-0.222799 -0.121272 0)
(-0.221231 -0.169217 0)
(-0.212334 -0.213051 0)
(-0.188019 -0.238583 0)
(-0.139682 -0.218539 0)
(-0.0628466 -0.118943 0)
(0.00584724 0.0141999 0)
(-0.00829204 0.0570046 0)
(-0.0353391 0.110008 0)
(-0.0718318 0.15049 0)
(-0.10707 0.181179 0)
(-0.136703 0.193871 0)
(-0.157107 0.186477 0)
(-0.169015 0.163315 0)
(-0.174549 0.130533 0)
(-0.176119 0.0928919 0)
(-0.176214 0.0534054 0)
(-0.176326 0.013318 0)
(-0.177127 -0.0272979 0)
(-0.179162 -0.069557 0)
(-0.182975 -0.114704 0)
(-0.18793 -0.163836 0)
(-0.190406 -0.215807 0)
(-0.182523 -0.261663 0)
(-0.154277 -0.275185 0)
(-0.0993987 -0.205914 0)
(-0.00890816 -0.0146279 0)
(-0.00613503 0.0775988 0)
(-0.0297909 0.140558 0)
(-0.0614244 0.181225 0)
(-0.0898935 0.208338 0)
(-0.111902 0.214927 0)
(-0.125437 0.2006 0)
(-0.132123 0.171369 0)
(-0.134271 0.134209 0)
(-0.134328 0.0940986 0)
(-0.134224 0.0537426 0)
(-0.134628 0.0138655 0)
(-0.135721 -0.0258747 0)
(-0.137956 -0.0664592 0)
(-0.142025 -0.109069 0)
(-0.148545 -0.155655 0)
(-0.156217 -0.208574 0)
(-0.159078 -0.265905 0)
(-0.146754 -0.308145 0)
(-0.112257 -0.277221 0)
(-0.0309651 -0.0753398 0)
(-0.0027297 0.0936168 0)
(-0.020418 0.165648 0)
(-0.0451525 0.205616 0)
(-0.0663471 0.228606 0)
(-0.0816149 0.229566 0)
(-0.090104 0.20958 0)
(-0.0937333 0.175828 0)
(-0.0946413 0.135793 0)
(-0.0949142 0.0944521 0)
(-0.0957059 0.0540194 0)
(-0.0970535 0.0145939 0)
(-0.0988627 -0.0245705 0)
(-0.1013 -0.0642067 0)
(-0.104871 -0.104967 0)
(-0.110723 -0.148444 0)
(-0.119592 -0.198567 0)
(-0.128351 -0.259804 0)
(-0.126529 -0.323474 0)
(-0.107484 -0.334781 0)
(-0.0373502 -0.163444 0)
(0.00121954 0.102762 0)
(-0.00894292 0.183489 0)
(-0.025645 0.22317 0)
(-0.0396436 0.242789 0)
(-0.0491224 0.239553 0)
(-0.053994 0.215579 0)
(-0.0559611 0.178823 0)
(-0.0566706 0.137128 0)
(-0.057628 0.0953786 0)
(-0.0593674 0.0552552 0)
(-0.0616585 0.0163077 0)
(-0.0643581 -0.0224776 0)
(-0.0674573 -0.0617097 0)
(-0.0711345 -0.10159 0)
(-0.0763222 -0.142789 0)
(-0.0845905 -0.188934 0)
(-0.0960643 -0.248365 0)
(-0.100654 -0.324338 0)
(-0.0951756 -0.372247 0)
(-0.0309238 -0.242593 0)
(0.00511813 0.103928 0)
(0.00295773 0.193089 0)
(-0.00538914 0.233664 0)
(-0.0125054 0.250821 0)
(-0.0168957 0.244735 0)
(-0.0187817 0.218517 0)
(-0.0194685 0.180455 0)
(-0.0199948 0.138381 0)
(-0.0212913 0.0969302 0)
(-0.023526 0.0574029 0)
(-0.026414 0.0190773 0)
(-0.0298967 -0.0191542 0)
(-0.0339904 -0.0579489 0)
(-0.0386341 -0.0973599 0)
(-0.0443737 -0.137307 0)
(-0.0524368 -0.180176 0)
(-0.0657578 -0.235659 0)
(-0.0742224 -0.318113 0)
(-0.0812002 -0.396751 0)
(-0.0229424 -0.307151 0)
(0.00845657 0.0974541 0)
(0.0142198 0.194081 0)
(0.014103 0.237187 0)
(0.0137089 0.253601 0)
(0.0143319 0.24652 0)
(0.0155292 0.219812 0)
(0.0163892 0.181763 0)
(0.0164433 0.14005 0)
(0.0153054 0.0991164 0)
(0.0130279 0.0602013 0)
(0.00985998 0.0226196 0)
(0.00575242 -0.0147405 0)
(0.000562189 -0.052666 0)
(-0.00556177 -0.0912551 0)
(-0.0130279 -0.130138 0)
(-0.0219748 -0.170315 0)
(-0.0377164 -0.2207 0)
(-0.0487315 -0.304473 0)
(-0.0679053 -0.408495 0)
(-0.0144595 -0.360033 0)
(0.0103272 0.084477 0)
(0.023416 0.186486 0)
(0.0310792 0.233311 0)
(0.0370084 0.250147 0)
(0.0426697 0.243306 0)
(0.0476239 0.21752 0)
(0.0510603 0.180758 0)
(0.052735 0.140354 0)
(0.052602 0.100598 0)
(0.0508711 0.0627992 0)
(0.0477604 0.0264492 0)
(0.0431528 -0.00951061 0)
(0.0368809 -0.0459734 0)
(0.0290681 -0.083096 0)
(0.0189165 -0.120512 0)
(0.00759348 -0.158448 0)
(-0.0118194 -0.204412 0)
(-0.0242437 -0.286474 0)
(-0.0558465 -0.411003 0)
(-0.00613834 -0.401882 0)
(0.00987565 0.0672293 0)
(0.0290255 0.170679 0)
(0.0443501 0.222221 0)
(0.0568916 0.241314 0)
(0.0681844 0.236385 0)
(0.0778705 0.213023 0)
(0.0850904 0.178731 0)
(0.0895435 0.140392 0)
(0.0913063 0.102236 0)
(0.090679 0.0658088 0)
(0.087992 0.0309714 0)
(0.0829429 -0.00329411 0)
(0.0754301 -0.0375235 0)
(0.0657408 -0.0722936 0)
(0.0524934 -0.10741 0)
(0.037564 -0.142753 0)
(0.0131259 -0.184241 0)
(7.40763e-05 -0.263237 0)
(-0.0448009 -0.406705 0)
(0.00276448 -0.436262 0)
(0.00692797 0.0493955 0)
(0.0293596 0.148959 0)
(0.0511062 0.203633 0)
(0.0699836 0.224549 0)
(0.0874587 0.22169 0)
(0.103152 0.201531 0)
(0.115821 0.170938 0)
(0.124784 0.13605 0)
(0.129953 0.100856 0)
(0.131571 0.0670351 0)
(0.129906 0.0348365 0)
(0.124982 0.00343563 0)
(0.116352 -0.0274499 0)
(0.104622 -0.0586789 0)
(0.0875326 -0.0902947 0)
(0.0683471 -0.122908 0)
(0.0382876 -0.160829 0)
(0.023853 -0.23714 0)
(-0.0344438 -0.398955 0)
(0.0134733 -0.464423 0)
(0.00238636 0.0346287 0)
(0.0236365 0.123895 0)
(0.0509513 0.179942 0)
(0.076682 0.202938 0)
(0.101346 0.202625 0)
(0.124228 0.186224 0)
(0.143681 0.160168 0)
(0.158487 0.129739 0)
(0.16823 0.0985498 0)
(0.173118 0.0682894 0)
(0.173092 0.0395545 0)
(0.168863 0.0119391 0)
(0.159027 -0.0149002 0)
(0.145296 -0.0416977 0)
(0.123997 -0.0687342 0)
(0.10046 -0.0975322 0)
(0.0646104 -0.132688 0)
(0.0469998 -0.207442 0)
(-0.0227092 -0.387076 0)
(0.0285306 -0.485554 0)
(-0.00342568 0.0286184 0)
(0.0100688 0.101499 0)
(0.0371051 0.148691 0)
(0.0689685 0.169453 0)
(0.101861 0.170672 0)
(0.13358 0.158381 0)
(0.161576 0.137946 0)
(0.18412 0.113544 0)
(0.200167 0.0882595 0)
(0.21009 0.0636217 0)
(0.213013 0.0403759 0)
(0.210758 0.0184041 0)
(0.200494 -0.00266854 0)
(0.185864 -0.0233003 0)
(0.161052 -0.0439624 0)
(0.134438 -0.0677221 0)
(0.0929122 -0.101674 0)
(0.0698685 -0.18 0)
(-0.00437188 -0.370048 0)
(0.0521591 -0.491639 0)
(-0.0140085 0.0185221 0)
(-0.00751546 0.0881772 0)
(0.019215 0.124191 0)
(0.0564454 0.137313 0)
(0.0975968 0.136903 0)
(0.137977 0.12772 0)
(0.174228 0.113063 0)
(0.204071 0.095285 0)
(0.225964 0.076814 0)
(0.241056 0.0586675 0)
(0.247089 0.0417983 0)
(0.248004 0.0261077 0)
(0.238667 0.0117482 0)
(0.226851 -0.00203997 0)
(0.201856 -0.0160774 0)
(0.177877 -0.0350126 0)
(0.133536 -0.0677912 0)
(0.107831 -0.145995 0)
(0.0374683 -0.326118 0)
(0.0923659 -0.455871 0)
(-0.106017 0.0824214 0)
(-0.0777577 0.0689939 0)
(-0.0485682 0.0733685 0)
(0.0037768 0.0778856 0)
(0.0572881 0.0782178 0)
(0.110016 0.0739529 0)
(0.157181 0.0666178 0)
(0.199541 0.0572139 0)
(0.231649 0.0475392 0)
(0.259799 0.0378843 0)
(0.275526 0.0292191 0)
(0.290681 0.0212348 0)
(0.291035 0.0144793 0)
(0.295148 0.00809734 0)
(0.27885 0.00113064 0)
(0.27164 -0.010007 0)
(0.232334 -0.0355629 0)
(0.218137 -0.095417 0)
(0.150207 -0.229723 0)
(0.170672 -0.341456 0)
(0.12997 0.103745 0)
(0.158323 0.0752304 0)
(0.21217 0.0532306 0)
(0.270678 0.0416252 0)
(0.323252 0.0359147 0)
(0.375691 0.0319495 0)
(0.420283 0.0289169 0)
(0.465599 0.0255812 0)
(0.498692 0.0229032 0)
(0.53394 0.019711 0)
(0.553377 0.0175484 0)
(0.579187 0.0146108 0)
(0.585326 0.0131663 0)
(0.603667 0.0103476 0)
(0.59509 0.00938539 0)
(0.603595 0.00500147 0)
(0.56779 9.05313e-05 0)
(0.547615 -0.0183152 0)
(0.435695 -0.0504145 0)
(0.336756 -0.101386 0)
)
;

boundaryField
{
    movingWall
    {
        type            fixedValue;
        value           uniform (1 0 0);
    }
    fixedWalls
    {
        type            noSlip;
    }
    frontAndBack
    {
        type            empty;
    }
}


// ************************************************************************* //
