/*--------------------------------*- C++ -*----------------------------------*\
| =========                 |                                                 |
| \\      /  F ield         | OpenFOAM: The Open Source CFD Toolbox           |
|  \\    /   O peration     | Version:  2212                                  |
|   \\  /    A nd           | Website:  www.openfoam.com                      |
|    \\/     M anipulation  |                                                 |
\*---------------------------------------------------------------------------*/
FoamFile
{
    version     2.0;
    format      ascii;
    arch        "LSB;label=32;scalar=64";
    class       volScalarField;
    location    "15.5";
    object      p;
}
// * * * * * * * * * * * * * * * * * * * * * * * * * * * * * * * * * * * * * //

dimensions      [0 2 -2 0 0 0 0];

internalField   nonuniform List<scalar> 
400
(
1.05804e-07
-0.000150924
-0.000535009
-0.00107221
-0.00173294
-0.00249443
-0.00318556
-0.00359814
-0.00356592
-0.00293465
-0.00154908
0.000618883
0.00324911
0.00551362
0.00653328
0.00592238
0.00400154
0.0021491
0.0011101
0.00104104
0.00011596
-5.84584e-05
-0.000377403
-0.00076458
-0.0012445
-0.00188863
-0.00270676
-0.0035441
-0.0040806
-0.00393902
-0.00284701
-0.000825407
0.00168887
0.00396043
0.00512421
0.00474258
0.00310245
0.0013742
0.000592604
0.000683649
0.000536075
0.000264605
-7.76873e-05
-0.000560047
-0.00134776
-0.00258117
-0.00421975
-0.00598445
-0.00740327
-0.0079446
-0.0072649
-0.00546267
-0.00289228
-0.000195253
0.00179116
0.00242715
0.0017082
0.000501491
-0.000396702
-0.000393409
0.00115159
0.000740902
0.000191511
-0.000775231
-0.00245164
-0.00493846
-0.00799588
-0.0111213
-0.0137042
-0.0151778
-0.0152077
-0.0138407
-0.0112944
-0.00802984
-0.004753
-0.0022105
-0.000871185
-0.000707029
-0.00128965
-0.00191897
0.00158299
0.000973384
-2.32497e-05
-0.00192456
-0.00500727
-0.00918082
-0.0139146
-0.0184807
-0.0222171
-0.0246539
-0.0255295
-0.0247238
-0.0223643
-0.0187443
-0.0143054
-0.00965652
-0.00559292
-0.00294972
-0.00219408
-0.0040188
0.00129305
0.000444695
-0.00119774
-0.00430492
-0.00900572
-0.0148814
-0.0210737
-0.0267163
-0.0311923
-0.0341796
-0.0355465
-0.0351905
-0.0331978
-0.0297195
-0.0249002
-0.0189618
-0.0125061
-0.00694917
-0.0044017
-0.00652502
-4.86286e-05
-0.0011479
-0.00349989
-0.00779743
-0.0139333
-0.0211153
-0.0282372
-0.0344089
-0.0391298
-0.0422332
-0.043721
-0.0436116
-0.0419738
-0.0388797
-0.0343117
-0.028158
-0.0205398
-0.0127036
-0.00785558
-0.00774877
-0.00245082
-0.00374255
-0.00669907
-0.011914
-0.0190407
-0.0269828
-0.0345053
-0.0407804
-0.0454521
-0.0484784
-0.0499411
-0.0499324
-0.0485316
-0.0457895
-0.0416633
-0.0359275
-0.0283264
-0.0193718
-0.011823
-0.00798128
-0.00553801
-0.00691563
-0.0102642
-0.0160226
-0.0236591
-0.0318906
-0.0394525
-0.0456143
-0.0501389
-0.0530591
-0.0544883
-0.0545284
-0.0532541
-0.050727
-0.0469632
-0.041813
-0.0348687
-0.0259485
-0.0167099
-0.00999526
-0.00873416
-0.0100863
-0.0135982
-0.0195429
-0.0272873
-0.0354882
-0.0429134
-0.0489112
-0.053311
-0.0561691
-0.0575931
-0.0576643
-0.0564458
-0.0540126
-0.0504524
-0.0457615
-0.039635
-0.0315249
-0.022322
-0.0143406
-0.0115045
-0.0127584
-0.0162198
-0.022055
-0.029608
-0.0375897
-0.0448277
-0.0507007
-0.0550443
-0.0578958
-0.0593382
-0.0594297
-0.0582204
-0.0557903
-0.0522881
-0.0478534
-0.042432
-0.0353835
-0.0271987
-0.0191801
-0.0135498
-0.0146191
-0.0178564
-0.0233161
-0.0304317
-0.0380637
-0.0451189
-0.050951
-0.0553304
-0.0582419
-0.0597297
-0.0598321
-0.05859
-0.0560844
-0.0525167
-0.0481391
-0.0432077
-0.0370571
-0.0300326
-0.0224179
-0.0148378
-0.0155683
-0.0183523
-0.0232108
-0.029694
-0.0368796
-0.0437656
-0.0496413
-0.0541561
-0.0572023
-0.0587714
-0.0588785
-0.0575591
-0.0549171
-0.0511782
-0.0466567
-0.0419662
-0.0363008
-0.0302267
-0.0228965
-0.0154681
-0.0157224
-0.0177776
-0.0217467
-0.0273902
-0.0340322
-0.0407513
-0.0467414
-0.0514939
-0.0547693
-0.0564833
-0.0566243
-0.0552026
-0.0523539
-0.048347
-0.0435825
-0.0387312
-0.0331419
-0.0281001
-0.0202797
-0.0155747
-0.0152985
-0.0163383
-0.0190881
-0.0236535
-0.0296346
-0.0361722
-0.0423365
-0.0474285
-0.0510404
-0.0529811
-0.0531844
-0.0516918
-0.0485922
-0.0442274
-0.0390544
-0.0337822
-0.0280719
-0.0242319
-0.0143853
-0.0152771
-0.0145504
-0.014261
-0.0154262
-0.0186851
-0.023895
-0.0302319
-0.0366153
-0.0421385
-0.046202
-0.0484901
-0.0488672
-0.0473539
-0.0440215
-0.0392494
-0.0335193
-0.0276415
-0.0216295
-0.0180537
-0.00383309
-0.0146623
-0.0136184
-0.0117071
-0.0110813
-0.0129539
-0.0173806
-0.0235344
-0.0301709
-0.0361938
-0.0408121
-0.0435793
-0.0442623
-0.0428512
-0.0393769
-0.0341857
-0.02769
-0.0206824
-0.0132763
-0.00678588
0.0160529
-0.0145835
-0.0126574
-0.00864868
-0.00623481
-0.00691028
-0.0107461
-0.0168182
-0.0237403
-0.0302991
-0.0355398
-0.0389042
-0.0400356
-0.0388781
-0.0354484
-0.0298962
-0.022276
-0.0128727
-0.000688159
0.0166951
0.0570639
-0.0117948
-0.0118309
-0.0057263
-0.00177519
-0.00176517
-0.00540493
-0.0115754
-0.0188153
-0.0258759
-0.0316879
-0.0356628
-0.0373624
-0.0366858
-0.0333557
-0.0272245
-0.0175417
-0.00314829
0.0204903
0.0607044
0.129821
-0.0295171
-0.0106299
-0.00060905
0.00308065
0.00244809
-0.0015572
-0.00799969
-0.0155537
-0.0229765
-0.0291742
-0.0335324
-0.0355885
-0.0352016
-0.0319562
-0.0252279
-0.0128602
0.00942257
0.0511715
0.122878
0.226076
)
;

boundaryField
{
    movingWall
    {
        type            zeroGradient;
    }
    fixedWalls
    {
        type            zeroGradient;
    }
    frontAndBack
    {
        type            empty;
    }
}


// ************************************************************************* //
