/*--------------------------------*- C++ -*----------------------------------*\
| =========                 |                                                 |
| \\      /  F ield         | OpenFOAM: The Open Source CFD Toolbox           |
|  \\    /   O peration     | Version:  2212                                  |
|   \\  /    A nd           | Website:  www.openfoam.com                      |
|    \\/     M anipulation  |                                                 |
\*---------------------------------------------------------------------------*/
FoamFile
{
    version     2.0;
    format      ascii;
    arch        "LSB;label=32;scalar=64";
    class       volScalarField;
    location    "12";
    object      p;
}
// * * * * * * * * * * * * * * * * * * * * * * * * * * * * * * * * * * * * * //

dimensions      [0 2 -2 0 0 0 0];

internalField   nonuniform List<scalar> 
400
(
3.98061e-07
-0.000150604
-0.000534687
-0.00107189
-0.00173262
-0.0024941
-0.00318523
-0.0035978
-0.00356557
-0.0029343
-0.00154875
0.000619208
0.00324943
0.00551395
0.00653363
0.00592275
0.00400193
0.0021495
0.0011105
0.00104145
0.000116282
-5.81343e-05
-0.000377081
-0.000764257
-0.00124418
-0.00188831
-0.00270643
-0.00354376
-0.00408025
-0.00393867
-0.00284666
-0.000825073
0.0016892
0.00396077
0.00512456
0.00474296
0.00310285
0.0013746
0.000593012
0.000684054
0.0005364
0.00026493
-7.73636e-05
-0.000559724
-0.00134743
-0.00258084
-0.00421941
-0.0059841
-0.0074029
-0.00794422
-0.00726452
-0.0054623
-0.00289192
-0.000194894
0.00179152
0.00242754
0.0017086
0.000501904
-0.000396287
-0.000392998
0.00115192
0.000741228
0.000191836
-0.000774906
-0.00245131
-0.0049381
-0.00799549
-0.0111209
-0.0137038
-0.0151774
-0.0152072
-0.0138403
-0.011294
-0.00802943
-0.0047526
-0.00221009
-0.000870774
-0.000706615
-0.00128923
-0.00191855
0.00158331
0.000973708
-2.29216e-05
-0.00192423
-0.00500691
-0.00918043
-0.0139141
-0.0184802
-0.0222166
-0.0246533
-0.025529
-0.0247232
-0.0223638
-0.0187438
-0.014305
-0.00965606
-0.00559249
-0.0029493
-0.00219366
-0.00401838
0.00129337
0.000445016
-0.00119741
-0.00430456
-0.00900532
-0.014881
-0.0210732
-0.0267157
-0.0311917
-0.034179
-0.0355458
-0.0351898
-0.0331971
-0.0297189
-0.0248996
-0.0189612
-0.0125056
-0.00694873
-0.00440128
-0.00652458
-4.831e-05
-0.00114758
-0.00349955
-0.00779704
-0.0139328
-0.0211148
-0.0282366
-0.0344082
-0.0391291
-0.0422324
-0.0437201
-0.0436107
-0.0419729
-0.038879
-0.034311
-0.0281573
-0.0205392
-0.0127031
-0.00785515
-0.00774834
-0.00245049
-0.00374221
-0.00669871
-0.0119136
-0.0190402
-0.0269822
-0.0345045
-0.0407796
-0.0454512
-0.0484774
-0.0499401
-0.0499314
-0.0485306
-0.0457886
-0.0416625
-0.0359268
-0.0283258
-0.0193713
-0.0118226
-0.00798086
-0.00553767
-0.00691527
-0.0102638
-0.0160222
-0.0236585
-0.0318899
-0.0394517
-0.0456134
-0.0501379
-0.053058
-0.0544871
-0.0545272
-0.053253
-0.050726
-0.0469623
-0.0418122
-0.034868
-0.0259479
-0.0167094
-0.00999482
-0.0087338
-0.0100859
-0.0135978
-0.0195424
-0.0272867
-0.0354875
-0.0429125
-0.0489102
-0.0533099
-0.0561679
-0.0575918
-0.057663
-0.0564446
-0.0540114
-0.0504514
-0.0457606
-0.0396343
-0.0315242
-0.0223215
-0.0143401
-0.0115041
-0.012758
-0.0162194
-0.0220545
-0.0296073
-0.0375889
-0.0448268
-0.0506996
-0.0550431
-0.0578945
-0.0593368
-0.0594283
-0.0582191
-0.0557891
-0.052287
-0.0478525
-0.0424313
-0.0353828
-0.0271981
-0.0191795
-0.0135494
-0.0146187
-0.0178559
-0.0233155
-0.0304311
-0.0380629
-0.0451179
-0.0509499
-0.0553292
-0.0582406
-0.0597283
-0.0598307
-0.0585886
-0.0560832
-0.0525157
-0.0481382
-0.0432069
-0.0370564
-0.030032
-0.0224174
-0.0148374
-0.0155679
-0.0183518
-0.0232102
-0.0296934
-0.0368788
-0.0437647
-0.0496402
-0.0541549
-0.057201
-0.05877
-0.0588771
-0.0575578
-0.0549159
-0.0511771
-0.0466558
-0.0419655
-0.0363001
-0.0302261
-0.022896
-0.0154677
-0.015722
-0.0177772
-0.0217462
-0.0273896
-0.0340315
-0.0407504
-0.0467404
-0.0514928
-0.0547681
-0.0564821
-0.0566231
-0.0552014
-0.0523528
-0.048346
-0.0435817
-0.0387306
-0.0331414
-0.0280996
-0.0202792
-0.0155743
-0.0152981
-0.0163379
-0.0190876
-0.0236529
-0.029634
-0.0361714
-0.0423356
-0.0474275
-0.0510393
-0.05298
-0.0531833
-0.0516908
-0.0485912
-0.0442265
-0.0390537
-0.0337817
-0.0280715
-0.0242315
-0.0143849
-0.0152767
-0.01455
-0.0142606
-0.0154258
-0.0186847
-0.0238945
-0.0302312
-0.0366145
-0.0421376
-0.046201
-0.0484891
-0.0488662
-0.0473529
-0.0440207
-0.0392487
-0.0335188
-0.0276411
-0.0216292
-0.0180534
-0.00383284
-0.0146619
-0.0136181
-0.0117067
-0.0110809
-0.0129535
-0.0173801
-0.0235339
-0.0301702
-0.0361931
-0.0408113
-0.0435785
-0.0442615
-0.0428504
-0.0393762
-0.0341851
-0.0276896
-0.0206822
-0.0132761
-0.00678574
0.016053
-0.0145831
-0.012657
-0.00864836
-0.00623452
-0.00690998
-0.0107457
-0.0168177
-0.0237398
-0.0302985
-0.0355391
-0.0389034
-0.0400349
-0.0388774
-0.0354478
-0.0298957
-0.0222757
-0.0128725
-0.00068814
0.016695
0.0570639
-0.0117945
-0.0118306
-0.00572601
-0.00177494
-0.00176492
-0.00540465
-0.0115751
-0.0188148
-0.0258754
-0.0316873
-0.0356621
-0.0373617
-0.0366851
-0.0333552
-0.0272241
-0.0175415
-0.0031482
0.0204903
0.0607043
0.129821
-0.0295167
-0.0106296
-0.000608783
0.00308088
0.00244831
-0.00155694
-0.00799937
-0.0155533
-0.022976
-0.0291736
-0.0335317
-0.0355878
-0.035201
-0.0319556
-0.0252275
-0.0128599
0.00942266
0.0511715
0.122878
0.226076
)
;

boundaryField
{
    movingWall
    {
        type            zeroGradient;
    }
    fixedWalls
    {
        type            zeroGradient;
    }
    frontAndBack
    {
        type            empty;
    }
}


// ************************************************************************* //
