/*--------------------------------*- C++ -*----------------------------------*\
| =========                 |                                                 |
| \\      /  F ield         | OpenFOAM: The Open Source CFD Toolbox           |
|  \\    /   O peration     | Version:  2212                                  |
|   \\  /    A nd           | Website:  www.openfoam.com                      |
|    \\/     M anipulation  |                                                 |
\*---------------------------------------------------------------------------*/
FoamFile
{
    version     2.0;
    format      ascii;
    arch        "LSB;label=32;scalar=64";
    class       volScalarField;
    location    "12";
    object      T;
}
// * * * * * * * * * * * * * * * * * * * * * * * * * * * * * * * * * * * * * //

dimensions      [0 0 0 1 0 0 0];

internalField   nonuniform List<scalar> 
400
(
0.929593
0.931151
0.934321
0.939003
0.944445
0.949383
0.952892
0.954907
0.955981
0.956706
0.957362
0.958037
0.958756
0.959494
0.960136
0.96049
0.960246
0.95907
0.957139
0.955557
0.9316
0.93351
0.937334
0.942797
0.948555
0.952769
0.954814
0.955528
0.95578
0.95597
0.956341
0.957038
0.958106
0.959487
0.960898
0.961907
0.961855
0.96024
0.957721
0.955903
0.934737
0.937293
0.942034
0.947732
0.952201
0.954098
0.954068
0.953235
0.952184
0.951387
0.951258
0.952085
0.953877
0.95658
0.959701
0.962518
0.963824
0.962409
0.95879
0.956544
0.937807
0.94103
0.946192
0.950816
0.952815
0.952039
0.949704
0.946719
0.943764
0.941578
0.940726
0.94168
0.944324
0.948715
0.954252
0.960067
0.964557
0.965596
0.96157
0.958056
0.940172
0.943782
0.948554
0.95118
0.950314
0.946701
0.941637
0.936048
0.930935
0.927206
0.925521
0.926433
0.929796
0.935733
0.943708
0.952863
0.961584
0.967365
0.966586
0.960877
0.941738
0.94534
0.949073
0.949289
0.945491
0.938967
0.931058
0.922928
0.915842
0.910757
0.908343
0.909038
0.91283
0.919791
0.929575
0.941452
0.95402
0.964945
0.970341
0.965012
0.942623
0.945861
0.948188
0.945981
0.939467
0.930256
0.919815
0.909614
0.901061
0.895083
0.892233
0.892736
0.896663
0.904044
0.914755
0.928353
0.943712
0.95869
0.969836
0.97094
0.943016
0.945717
0.94664
0.942318
0.933479
0.92198
0.909516
0.897825
0.888353
0.881929
0.878913
0.87934
0.883221
0.890555
0.90138
0.915662
0.932801
0.950876
0.966332
0.974118
0.943075
0.945194
0.944887
0.938889
0.928254
0.915049
0.901174
0.888528
0.878538
0.871906
0.868824
0.869219
0.873016
0.880131
0.890592
0.904666
0.922532
0.942936
0.961832
0.972714
0.942923
0.944556
0.94341
0.93637
0.924581
0.910249
0.895452
0.882194
0.871863
0.865053
0.861851
0.862156
0.865859
0.87279
0.882813
0.896191
0.913796
0.935596
0.957767
0.971654
0.94263
0.94392
0.942307
0.934778
0.922439
0.907592
0.892411
0.878893
0.86836
0.861344
0.85791
0.857992
0.861502
0.868235
0.877873
0.890422
0.907073
0.929239
0.953985
0.970977
0.942237
0.943357
0.941723
0.934388
0.922214
0.907475
0.892372
0.878848
0.868182
0.860916
0.857158
0.856884
0.860032
0.866403
0.875579
0.887241
0.902509
0.924216
0.95096
0.970608
0.941738
0.942837
0.941477
0.934827
0.923411
0.909373
0.894869
0.88174
0.871211
0.863848
0.859811
0.859107
0.861714
0.867449
0.875888
0.88653
0.900113
0.920538
0.94857
0.970568
0.941101
0.942325
0.941544
0.936118
0.926145
0.913476
0.90013
0.887814
0.877694
0.870374
0.86609
0.86485
0.866704
0.871472
0.878788
0.888079
0.899769
0.9184
0.947028
0.970795
0.940263
0.941695
0.941482
0.937389
0.929212
0.918437
0.906843
0.895939
0.886768
0.879908
0.875639
0.873959
0.874951
0.878477
0.884248
0.891874
0.901546
0.917776
0.946223
0.971295
0.939267
0.940968
0.941491
0.938944
0.932951
0.924565
0.915232
0.906207
0.898386
0.892286
0.888183
0.88612
0.886122
0.888155
0.892046
0.89761
0.905093
0.918431
0.946197
0.972084
0.938278
0.939949
0.940696
0.939256
0.935268
0.929414
0.922702
0.916058
0.910132
0.905329
0.901828
0.89973
0.898969
0.899625
0.901686
0.905128
0.910643
0.921449
0.947816
0.973427
0.937579
0.939565
0.940869
0.94036
0.938154
0.934652
0.930445
0.926096
0.922018
0.918519
0.915711
0.913724
0.912546
0.91225
0.913027
0.914799
0.918862
0.927178
0.950853
0.975119
0.928265
0.937568
0.93762
0.937376
0.936196
0.934591
0.93274
0.931012
0.929423
0.928251
0.927394
0.92701
0.927041
0.927457
0.928573
0.929997
0.933639
0.93998
0.957954
0.97802
0.949601
0.955707
0.958985
0.960962
0.96203
0.962708
0.963072
0.96344
0.963702
0.9641
0.964453
0.964978
0.965465
0.966122
0.966755
0.967629
0.968742
0.971083
0.97574
0.983956
)
;

boundaryField
{
    movingWall
    {
        type            fixedValue;
        value           uniform 1;
    }
    fixedWalls
    {
        type            zeroGradient;
    }
    frontAndBack
    {
        type            empty;
    }
}


// ************************************************************************* //
