/*--------------------------------*- C++ -*----------------------------------*\
| =========                 |                                                 |
| \\      /  F ield         | OpenFOAM: The Open Source CFD Toolbox           |
|  \\    /   O peration     | Version:  2212                                  |
|   \\  /    A nd           | Website:  www.openfoam.com                      |
|    \\/     M anipulation  |                                                 |
\*---------------------------------------------------------------------------*/
FoamFile
{
    version     2.0;
    format      ascii;
    arch        "LSB;label=32;scalar=64";
    class       volVectorField;
    location    "12";
    object      U;
}
// * * * * * * * * * * * * * * * * * * * * * * * * * * * * * * * * * * * * * //

dimensions      [0 1 -1 0 0 0 0];

internalField   nonuniform List<vector> 
400
(
(0.00168187 -0.00168372 0)
(0.00483886 -0.00189224 0)
(0.00659133 -0.00120073 0)
(0.00567501 -0.000575138 0)
(0.00157238 0.000183969 0)
(-0.00682908 0.00173938 0)
(-0.0206084 0.00478645 0)
(-0.0395419 0.00873629 0)
(-0.0608125 0.0112929 0)
(-0.0791393 0.0105127 0)
(-0.0898146 0.0067745 0)
(-0.0904648 0.00166882 0)
(-0.0802269 -0.00361674 0)
(-0.059994 -0.00827524 0)
(-0.0335203 -0.0108474 0)
(-0.00529166 -0.00979539 0)
(0.016725 -0.00477291 0)
(0.0244716 0.0027771 0)
(0.0161791 0.00647247 0)
(0.00431661 0.00471725 0)
(0.00172059 -0.00506525 0)
(0.00316292 -0.00403256 0)
(-0.000416767 0.00058772 0)
(-0.0113297 0.00644176 0)
(-0.0314263 0.0140504 0)
(-0.061151 0.0237746 0)
(-0.096849 0.0330628 0)
(-0.131463 0.0370939 0)
(-0.158977 0.0335183 0)
(-0.176109 0.0234017 0)
(-0.181456 0.00910906 0)
(-0.175084 -0.00699078 0)
(-0.157565 -0.0231754 0)
(-0.129653 -0.0369155 0)
(-0.0936156 -0.044567 0)
(-0.0521943 -0.0418397 0)
(-0.0113992 -0.0263343 0)
(0.0168907 -0.00127842 0)
(0.0178728 0.0162246 0)
(0.00554233 0.0148204 0)
(-0.000239496 -0.00578075 0)
(-0.00538101 0.000801474 0)
(-0.0196096 0.0142996 0)
(-0.0445051 0.0312371 0)
(-0.0803438 0.0494476 0)
(-0.122209 0.0643235 0)
(-0.162357 0.0705496 0)
(-0.195281 0.0660313 0)
(-0.218875 0.0521927 0)
(-0.232543 0.0315344 0)
(-0.236299 0.00641572 0)
(-0.230813 -0.0211152 0)
(-0.216398 -0.0488758 0)
(-0.192551 -0.0732304 0)
(-0.159012 -0.0890301 0)
(-0.115745 -0.0892324 0)
(-0.0645643 -0.0670301 0)
(-0.0138208 -0.0226638 0)
(0.00948188 0.0179198 0)
(0.00415547 0.0235809 0)
(-0.00347201 0.000452833 0)
(-0.0175154 0.0172406 0)
(-0.0435181 0.0415026 0)
(-0.0796866 0.0681985 0)
(-0.122966 0.0911662 0)
(-0.165863 0.103855 0)
(-0.201937 0.102909 0)
(-0.229262 0.0896758 0)
(-0.248103 0.0673287 0)
(-0.259058 0.0385804 0)
(-0.262966 0.00531638 0)
(-0.260632 -0.03112 0)
(-0.251998 -0.0684597 0)
(-0.236018 -0.103749 0)
(-0.210704 -0.131497 0)
(-0.173355 -0.142897 0)
(-0.121407 -0.125769 0)
(-0.0568461 -0.0708537 0)
(-0.00098666 0.00356775 0)
(0.00474231 0.0282417 0)
(-0.00666313 0.014783 0)
(-0.0287318 0.0441131 0)
(-0.0632948 0.0771002 0)
(-0.10447 0.108929 0)
(-0.147294 0.13122 0)
(-0.184597 0.138208 0)
(-0.212939 0.129514 0)
(-0.232724 0.108754 0)
(-0.245243 0.0798021 0)
(-0.25222 0.0454491 0)
(-0.255339 0.00723929 0)
(-0.255521 -0.0340014 0)
(-0.252541 -0.0770894 0)
(-0.245857 -0.120695 0)
(-0.23266 -0.160833 0)
(-0.208335 -0.189043 0)
(-0.16683 -0.189991 0)
(-0.103455 -0.142885 0)
(-0.0221828 -0.0388531 0)
(0.00738229 0.0271027 0)
(-0.00851168 0.0348754 0)
(-0.035181 0.0766451 0)
(-0.0731008 0.114964 0)
(-0.113277 0.147718 0)
(-0.150545 0.166052 0)
(-0.179412 0.165989 0)
(-0.19894 0.149777 0)
(-0.210688 0.122516 0)
(-0.216639 0.0885521 0)
(-0.219272 0.0508732 0)
(-0.220541 0.0109545 0)
(-0.221442 -0.0307617 0)
(-0.222173 -0.0747278 0)
(-0.222844 -0.121301 0)
(-0.22127 -0.169248 0)
(-0.212365 -0.213081 0)
(-0.188044 -0.238608 0)
(-0.1397 -0.218556 0)
(-0.0628541 -0.118948 0)
(0.00584975 0.0142045 0)
(-0.00829409 0.0570106 0)
(-0.0353471 0.110022 0)
(-0.0718475 0.150514 0)
(-0.107093 0.18121 0)
(-0.136733 0.193905 0)
(-0.157143 0.18651 0)
(-0.169056 0.163345 0)
(-0.174597 0.130558 0)
(-0.176173 0.09291 0)
(-0.176273 0.0534135 0)
(-0.176387 0.0133139 0)
(-0.177188 -0.0273149 0)
(-0.179219 -0.0695856 0)
(-0.183026 -0.11474 0)
(-0.187972 -0.163875 0)
(-0.19044 -0.215844 0)
(-0.18255 -0.261695 0)
(-0.154297 -0.275211 0)
(-0.0994131 -0.205931 0)
(-0.00890856 -0.0146248 0)
(-0.00613696 0.07761 0)
(-0.0297987 0.140579 0)
(-0.0614395 0.181256 0)
(-0.0899155 0.208376 0)
(-0.111929 0.214967 0)
(-0.12547 0.200639 0)
(-0.132162 0.171406 0)
(-0.134317 0.134241 0)
(-0.134382 0.0941227 0)
(-0.134284 0.0537553 0)
(-0.134691 0.0138632 0)
(-0.135785 -0.0258938 0)
(-0.138016 -0.0664937 0)
(-0.142078 -0.109115 0)
(-0.148589 -0.155704 0)
(-0.15625 -0.20862 0)
(-0.159104 -0.265944 0)
(-0.146772 -0.308177 0)
(-0.112271 -0.277246 0)
(-0.0309703 -0.0753459 0)
(-0.002731 0.0936329 0)
(-0.0204244 0.165675 0)
(-0.045165 0.205652 0)
(-0.0663653 0.228648 0)
(-0.0816379 0.229611 0)
(-0.0901317 0.209624 0)
(-0.0937667 0.175871 0)
(-0.0946814 0.135832 0)
(-0.0949613 0.094483 0)
(-0.0957586 0.0540374 0)
(-0.0971095 0.0145942 0)
(-0.0989196 -0.0245901 0)
(-0.101355 -0.0642453 0)
(-0.104921 -0.10502 0)
(-0.110765 -0.148504 0)
(-0.119624 -0.198625 0)
(-0.128374 -0.259851 0)
(-0.126544 -0.323512 0)
(-0.107495 -0.334814 0)
(-0.0373554 -0.163465 0)
(0.0012193 0.102782 0)
(-0.00894664 0.183521 0)
(-0.0256533 0.223211 0)
(-0.039656 0.242836 0)
(-0.0491383 0.239603 0)
(-0.0540134 0.215628 0)
(-0.055985 0.178872 0)
(-0.0566999 0.137173 0)
(-0.0576624 0.0954155 0)
(-0.0594057 0.0552779 0)
(-0.0616994 0.0163109 0)
(-0.0644 -0.0224965 0)
(-0.0674987 -0.06175 0)
(-0.0711734 -0.101648 0)
(-0.0763562 -0.142858 0)
(-0.0846168 -0.189001 0)
(-0.0960825 -0.248421 0)
(-0.100663 -0.32438 0)
(-0.0951829 -0.372283 0)
(-0.0309265 -0.242622 0)
(0.00511925 0.103949 0)
(0.00295741 0.193123 0)
(-0.00539196 0.233708 0)
(-0.0125106 0.250871 0)
(-0.0169028 0.244787 0)
(-0.0187909 0.21857 0)
(-0.0194802 0.180508 0)
(-0.0200094 0.13843 0)
(-0.0213085 0.0969711 0)
(-0.0235449 0.0574291 0)
(-0.0264341 0.0190833 0)
(-0.0299178 -0.019171 0)
(-0.0340125 -0.0579881 0)
(-0.0386562 -0.0974185 0)
(-0.0443946 -0.137378 0)
(-0.0524539 -0.180251 0)
(-0.0657697 -0.235723 0)
(-0.0742268 -0.31816 0)
(-0.0812036 -0.396789 0)
(-0.0229436 -0.307184 0)
(0.00845928 0.0974744 0)
(0.0142233 0.194117 0)
(0.0141062 0.237232 0)
(0.0137117 0.253653 0)
(0.0143347 0.246574 0)
(0.0155318 0.219867 0)
(0.0163916 0.181817 0)
(0.0164453 0.140101 0)
(0.0153076 0.0991591 0)
(0.0130307 0.0602294 0)
(0.0098629 0.0226278 0)
(0.00575445 -0.0147547 0)
(0.000562285 -0.0527025 0)
(-0.00556386 -0.0913112 0)
(-0.0130323 -0.130209 0)
(-0.0219795 -0.170392 0)
(-0.0377201 -0.220768 0)
(-0.0487297 -0.304522 0)
(-0.0679046 -0.408532 0)
(-0.0144592 -0.360066 0)
(0.0103313 0.0844934 0)
(0.0234233 0.186521 0)
(0.0310884 0.233355 0)
(0.0370192 0.250198 0)
(0.0426823 0.243359 0)
(0.0476382 0.217575 0)
(0.0510766 0.180811 0)
(0.0527535 0.140404 0)
(0.052623 0.10064 0)
(0.0508946 0.062827 0)
(0.0477853 0.0264585 0)
(0.0431772 -0.00952239 0)
(0.0369028 -0.0460065 0)
(0.0290863 -0.0831479 0)
(0.0189295 -0.120579 0)
(0.00760229 -0.158523 0)
(-0.0118139 -0.204481 0)
(-0.0242358 -0.286524 0)
(-0.0558424 -0.411038 0)
(-0.00613704 -0.401913 0)
(0.00988006 0.0672394 0)
(0.0290358 0.170709 0)
(0.0443645 0.222262 0)
(0.0569096 0.241362 0)
(0.068206 0.236436 0)
(0.0778957 0.213074 0)
(0.0851196 0.178781 0)
(0.0895769 0.140438 0)
(0.091344 0.102275 0)
(0.0907205 0.0658349 0)
(0.088036 0.030981 0)
(0.0829867 -0.00330355 0)
(0.0754712 -0.0375522 0)
(0.0657773 -0.0723397 0)
(0.0525227 -0.10747 0)
(0.0375863 -0.142822 0)
(0.0131409 -0.184308 0)
(8.71688e-05 -0.263284 0)
(-0.0447941 -0.406737 0)
(0.00276671 -0.436288 0)
(0.00693123 0.0493983 0)
(0.0293711 0.148982 0)
(0.0511242 0.203669 0)
(0.070007 0.224592 0)
(0.0874873 0.221737 0)
(0.103186 0.201578 0)
(0.11586 0.170983 0)
(0.124829 0.13609 0)
(0.130004 0.10089 0)
(0.131627 0.0670576 0)
(0.129964 0.0348449 0)
(0.12504 0.00342769 0)
(0.116408 -0.0274742 0)
(0.104673 -0.0587183 0)
(0.0875756 -0.0903465 0)
(0.0683812 -0.122968 0)
(0.0383111 -0.160888 0)
(0.0238688 -0.237183 0)
(-0.0344353 -0.398982 0)
(0.0134767 -0.464443 0)
(0.00238763 0.0346256 0)
(0.0236464 0.123909 0)
(0.05097 0.17997 0)
(0.0767081 0.202975 0)
(0.101379 0.202666 0)
(0.124268 0.186265 0)
(0.143728 0.160207 0)
(0.158541 0.129774 0)
(0.168291 0.0985782 0)
(0.173184 0.0683084 0)
(0.173161 0.0395619 0)
(0.168933 0.0119333 0)
(0.159095 -0.0149192 0)
(0.145359 -0.0417292 0)
(0.12405 -0.0687761 0)
(0.100503 -0.097581 0)
(0.0646409 -0.132737 0)
(0.0470168 -0.207476 0)
(-0.0226992 -0.387095 0)
(0.0285354 -0.485566 0)
(-0.00342646 0.0286109 0)
(0.0100757 0.101505 0)
(0.0371216 0.14871 0)
(0.0689935 0.169482 0)
(0.101895 0.170705 0)
(0.133622 0.158414 0)
(0.161626 0.137977 0)
(0.184178 0.113572 0)
(0.200232 0.0882813 0)
(0.210161 0.0636358 0)
(0.213087 0.0403808 0)
(0.210834 0.018399 0)
(0.200568 -0.00268422 0)
(0.185933 -0.0233252 0)
(0.161111 -0.0439946 0)
(0.134486 -0.0677585 0)
(0.0929456 -0.10171 0)
(0.0698849 -0.180027 0)
(-0.00436274 -0.370059 0)
(0.0521636 -0.491644 0)
(-0.0140134 0.0185148 0)
(-0.00751624 0.0881755 0)
(0.0192244 0.1242 0)
(0.0564647 0.13733 0)
(0.0976265 0.136925 0)
(0.138017 0.127743 0)
(0.174278 0.113085 0)
(0.204131 0.0953047 0)
(0.226031 0.0768296 0)
(0.241129 0.0586777 0)
(0.247166 0.0418018 0)
(0.248083 0.0261045 0)
(0.238741 0.0117376 0)
(0.226921 -0.00205609 0)
(0.201916 -0.0160984 0)
(0.177924 -0.0350356 0)
(0.133569 -0.0678139 0)
(0.107847 -0.146008 0)
(0.0374756 -0.32612 0)
(0.0923688 -0.455871 0)
(-0.106021 0.0824163 0)
(-0.077761 0.0689894 0)
(-0.0485677 0.0733714 0)
(0.00378465 0.0778934 0)
(0.0573052 0.0782287 0)
(0.110043 0.0739651 0)
(0.157218 0.0666297 0)
(0.199586 0.0572242 0)
(0.231701 0.047547 0)
(0.259857 0.037889 0)
(0.275586 0.02922 0)
(0.290742 0.0212323 0)
(0.291092 0.0144733 0)
(0.2952 0.00808888 0)
(0.278893 0.00111983 0)
(0.271673 -0.0100176 0)
(0.232357 -0.0355719 0)
(0.218147 -0.0954208 0)
(0.150209 -0.229723 0)
(0.170672 -0.341455 0)
(0.129968 0.103744 0)
(0.158319 0.0752268 0)
(0.212163 0.0532264 0)
(0.270671 0.0416218 0)
(0.323248 0.0359125 0)
(0.375692 0.0319484 0)
(0.42029 0.0289164 0)
(0.465612 0.025581 0)
(0.49871 0.0229029 0)
(0.533962 0.0197104 0)
(0.553401 0.0175473 0)
(0.579211 0.0146093 0)
(0.585348 0.0131642 0)
(0.603686 0.0103451 0)
(0.595104 0.00938266 0)
(0.603603 0.00499904 0)
(0.567792 8.86196e-05 0)
(0.547612 -0.0183163 0)
(0.435689 -0.0504144 0)
(0.336753 -0.101385 0)
)
;

boundaryField
{
    movingWall
    {
        type            fixedValue;
        value           uniform (1 0 0);
    }
    fixedWalls
    {
        type            noSlip;
    }
    frontAndBack
    {
        type            empty;
    }
}


// ************************************************************************* //
