/*--------------------------------*- C++ -*----------------------------------*\
| =========                 |                                                 |
| \\      /  F ield         | OpenFOAM: The Open Source CFD Toolbox           |
|  \\    /   O peration     | Version:  2212                                  |
|   \\  /    A nd           | Website:  www.openfoam.com                      |
|    \\/     M anipulation  |                                                 |
\*---------------------------------------------------------------------------*/
FoamFile
{
    version     2.0;
    format      ascii;
    arch        "LSB;label=32;scalar=64";
    class       surfaceScalarField;
    location    "1.5";
    object      phi;
}
// * * * * * * * * * * * * * * * * * * * * * * * * * * * * * * * * * * * * * //

dimensions      [0 3 -1 0 0 0 0];

oriented        oriented;

internalField   nonuniform List<scalar> 
760
(
4.71572e-08
-4.71568e-08
5.08595e-08
-3.70236e-09
4.04077e-09
4.68188e-08
-1.0558e-07
1.09621e-07
-3.07012e-07
2.01432e-07
-6.33676e-07
3.26664e-07
-1.10752e-06
4.73843e-07
-1.71e-06
6.02482e-07
-2.35583e-06
6.4583e-07
-2.90298e-06
5.47145e-07
-3.20512e-06
3.02149e-07
-3.17758e-06
-2.75427e-08
-2.72107e-06
-4.56515e-07
-1.91022e-06
-8.10848e-07
-9.09229e-07
-1.00099e-06
1.31502e-08
-9.22379e-07
6.06976e-07
-5.93826e-07
6.46745e-07
-3.97696e-08
3.05787e-07
3.40958e-07
3.05787e-07
-4.15865e-08
-5.57049e-09
-2.0532e-07
1.6003e-07
-5.04344e-07
3.45843e-07
-9.78589e-07
5.83865e-07
-1.68007e-06
9.02913e-07
-2.62645e-06
1.27305e-06
-3.75572e-06
1.60312e-06
-4.91244e-06
1.7592e-06
-5.89483e-06
1.62822e-06
-6.53367e-06
1.18599e-06
-6.73643e-06
5.04907e-07
-6.44313e-06
-3.20842e-07
-5.66895e-06
-1.23069e-06
-4.44416e-06
-2.03564e-06
-2.89531e-06
-2.54984e-06
-1.27029e-06
-2.54741e-06
-3.12388e-09
-1.86099e-06
5.70278e-07
-6.13171e-07
3.73734e-07
5.37503e-07
6.79521e-07
-1.89547e-07
1.83977e-07
-6.10494e-07
5.80978e-07
-1.2312e-06
9.66552e-07
-2.10266e-06
1.45532e-06
-3.2582e-06
2.05845e-06
-4.64167e-06
2.65652e-06
-6.09242e-06
3.05386e-06
-7.4041e-06
3.07089e-06
-8.41468e-06
2.63879e-06
-9.04102e-06
1.81233e-06
-9.23536e-06
6.99245e-07
-8.96896e-06
-5.87243e-07
-8.2623e-06
-1.93735e-06
-7.08563e-06
-3.21231e-06
-5.44372e-06
-4.19174e-06
-3.44817e-06
-4.54296e-06
-1.43995e-06
-3.86921e-06
-5.68252e-08
-1.99629e-06
2.51746e-07
2.28932e-07
9.31266e-07
-3.65167e-07
5.49144e-07
-1.05297e-06
1.26878e-06
-1.98219e-06
1.89577e-06
-3.18824e-06
2.66137e-06
-4.65732e-06
3.52753e-06
-6.26412e-06
4.26332e-06
-7.80916e-06
4.5989e-06
-9.11299e-06
4.37472e-06
-1.00834e-05
3.60918e-06
-1.0699e-05
2.42793e-06
-1.09394e-05
9.39705e-07
-1.08039e-05
-7.22774e-07
-1.03241e-05
-2.41721e-06
-9.42199e-06
-4.11437e-06
-7.99918e-06
-5.61455e-06
-5.97713e-06
-6.56501e-06
-3.46275e-06
-6.3836e-06
-1.04049e-06
-4.41855e-06
1.20626e-07
-9.32179e-07
1.05189e-06
-5.21918e-07
1.07106e-06
-1.43452e-06
2.18139e-06
-2.59866e-06
3.05991e-06
-4.0165e-06
4.07922e-06
-5.62123e-06
5.13226e-06
-7.2421e-06
5.88418e-06
-8.68227e-06
6.03908e-06
-9.81408e-06
5.50652e-06
-1.061e-05
4.40515e-06
-1.10992e-05
2.91705e-06
-1.13214e-05
1.16198e-06
-1.13097e-05
-7.34528e-07
-1.10887e-05
-2.6382e-06
-1.05906e-05
-4.61249e-06
-9.66449e-06
-6.54064e-06
-8.08114e-06
-8.14836e-06
-5.6402e-06
-8.82454e-06
-2.54163e-06
-7.51712e-06
-1.86063e-07
-3.28775e-06
8.65829e-07
-6.20978e-07
1.69204e-06
-1.66892e-06
3.22933e-06
-2.94579e-06
4.33677e-06
-4.40879e-06
5.54222e-06
-5.94794e-06
6.67142e-06
-7.38128e-06
7.31753e-06
-8.54893e-06
7.20673e-06
-9.38276e-06
6.34035e-06
-9.90546e-06
4.92785e-06
-1.01835e-05
3.1951e-06
-1.03097e-05
1.28815e-06
-1.03578e-05
-6.86434e-07
-1.0325e-05
-2.67101e-06
-1.02115e-05
-4.72597e-06
-9.89043e-06
-6.8617e-06
-9.0617e-06
-8.97709e-06
-7.30039e-06
-1.05858e-05
-4.3342e-06
-1.04833e-05
-9.00835e-07
-6.72112e-06
-3.50052e-08
-6.33391e-07
2.32543e-06
-1.69785e-06
4.29379e-06
-2.94568e-06
5.58459e-06
-4.29163e-06
6.88817e-06
-5.61086e-06
7.99064e-06
-6.74732e-06
8.45399e-06
-7.59295e-06
8.05236e-06
-8.12881e-06
6.87621e-06
-8.40827e-06
5.20731e-06
-8.51465e-06
3.30148e-06
-8.53836e-06
1.31187e-06
-8.55177e-06
-6.73031e-07
-8.57835e-06
-2.64442e-06
-8.67034e-06
-4.63398e-06
-8.79299e-06
-6.73905e-06
-8.70552e-06
-9.06455e-06
-7.89446e-06
-1.13969e-05
-5.70777e-06
-1.267e-05
-1.97887e-06
-1.045e-05
-2.01387e-06
-5.51603e-07
2.87703e-06
-1.51281e-06
5.255e-06
-2.60975e-06
6.68153e-06
-3.72847e-06
8.00689e-06
-4.75787e-06
9.02004e-06
-5.5893e-06
9.28541e-06
-6.16614e-06
8.6292e-06
-6.503e-06
7.21307e-06
-6.66276e-06
5.36707e-06
-6.71747e-06
3.35618e-06
-6.72247e-06
1.31687e-06
-6.70838e-06
-6.87121e-07
-6.7128e-06
-2.64001e-06
-6.81182e-06
-4.53496e-06
-7.07283e-06
-6.47804e-06
-7.41141e-06
-8.72598e-06
-7.36751e-06
-1.14408e-05
-6.12013e-06
-1.39174e-05
-3.04182e-06
-1.35283e-05
-5.0557e-06
-3.92217e-07
3.26925e-06
-1.15248e-06
6.01527e-06
-2.01681e-06
7.54586e-06
-2.85471e-06
8.84479e-06
-3.5846e-06
9.74993e-06
-4.14993e-06
9.85074e-06
-4.53745e-06
9.01672e-06
-4.77768e-06
7.4533e-06
-4.92283e-06
5.51222e-06
-5.01682e-06
3.45017e-06
-5.07413e-06
1.37418e-06
-5.08546e-06
-6.75789e-07
-5.07402e-06
-2.65145e-06
-5.11011e-06
-4.49887e-06
-5.3236e-06
-6.26455e-06
-5.77562e-06
-8.27396e-06
-6.18989e-06
-1.10265e-05
-5.74136e-06
-1.43659e-05
-3.56292e-06
-1.57068e-05
-8.61862e-06
-1.79998e-07
3.44925e-06
-6.76943e-07
6.51221e-06
-1.26505e-06
8.13397e-06
-1.80466e-06
9.3844e-06
-2.24687e-06
1.01921e-05
-2.58288e-06
1.01868e-05
-2.8301e-06
9.26394e-06
-3.01943e-06
7.64263e-06
-3.18091e-06
5.67371e-06
-3.32837e-06
3.59763e-06
-3.45199e-06
1.4978e-06
-3.52766e-06
-6.00124e-07
-3.55549e-06
-2.62362e-06
-3.57764e-06
-4.47672e-06
-3.71951e-06
-6.12267e-06
-4.15493e-06
-7.83854e-06
-4.79988e-06
-1.03816e-05
-4.92457e-06
-1.42412e-05
-3.3807e-06
-1.72506e-05
-1.19993e-05
5.01118e-08
3.39914e-06
-1.54681e-07
6.717e-06
-4.51925e-07
8.43122e-06
-6.96128e-07
9.6286e-06
-8.65892e-07
1.03619e-05
-9.88675e-07
1.03095e-05
-1.09596e-06
9.37123e-06
-1.21693e-06
7.7636e-06
-1.36368e-06
5.82046e-06
-1.52907e-06
3.76303e-06
-1.69719e-06
1.66592e-06
-1.8526e-06
-4.44721e-07
-1.97417e-06
-2.50205e-06
-2.07758e-06
-4.3733e-06
-2.24604e-06
-5.95422e-06
-2.66775e-06
-7.41682e-06
-3.42758e-06
-9.62176e-06
-3.94932e-06
-1.37195e-05
-2.95222e-06
-1.82477e-05
-1.49515e-05
2.3717e-07
3.16196e-06
3.22153e-07
6.63202e-06
3.26914e-07
8.42646e-06
3.79347e-07
9.57617e-06
4.9001e-07
1.02512e-05
6.02044e-07
1.01975e-05
6.63269e-07
9.31e-06
6.46204e-07
7.78066e-06
5.57678e-07
5.90899e-06
4.17999e-07
3.90271e-06
2.41392e-07
1.84253e-06
3.3339e-08
-2.36669e-07
-2.02157e-07
-2.26656e-06
-4.76853e-07
-4.09861e-06
-8.08021e-07
-5.62305e-06
-1.304e-06
-6.92084e-06
-2.16999e-06
-8.75578e-06
-2.98633e-06
-1.29031e-05
-2.47984e-06
-1.87542e-05
-1.74314e-05
3.68932e-07
2.79303e-06
7.0786e-07
6.29309e-06
9.82872e-07
8.15144e-06
1.32002e-06
9.23902e-06
1.7296e-06
9.84166e-06
2.11802e-06
9.80908e-06
2.39713e-06
9.03089e-06
2.53513e-06
7.64266e-06
2.54771e-06
5.89641e-06
2.46162e-06
3.9888e-06
2.28611e-06
2.01804e-06
1.99504e-06
5.4398e-08
1.62853e-06
-1.90005e-06
1.17362e-06
-3.64369e-06
6.31802e-07
-5.08123e-06
-8.30356e-08
-6.206e-06
-1.03875e-06
-7.80006e-06
-2.08708e-06
-1.18548e-05
-2.01051e-06
-1.88308e-05
-1.94419e-05
4.18248e-07
2.37479e-06
9.48641e-07
5.7627e-06
1.46461e-06
7.63548e-06
2.05888e-06
8.64475e-06
2.7422e-06
9.15835e-06
3.41186e-06
9.13942e-06
3.95304e-06
8.48971e-06
4.30825e-06
7.28745e-06
4.47767e-06
5.72699e-06
4.48146e-06
3.98501e-06
4.32408e-06
2.17541e-06
4.00219e-06
3.76287e-07
3.4986e-06
-1.39646e-06
2.84128e-06
-2.98637e-06
2.05194e-06
-4.29189e-06
1.16009e-06
-5.31416e-06
1.23386e-08
-6.65231e-06
-1.247e-06
-1.05955e-05
-1.56483e-06
-1.8513e-05
-2.10067e-05
3.66002e-07
2.00878e-06
9.70574e-07
5.15813e-06
1.65942e-06
6.94663e-06
2.47436e-06
7.82981e-06
3.41086e-06
8.22186e-06
4.36317e-06
8.1871e-06
5.19279e-06
7.66009e-06
5.80922e-06
6.67103e-06
6.1832e-06
5.35301e-06
6.31739e-06
3.85082e-06
6.21455e-06
2.27825e-06
5.86874e-06
7.22094e-07
5.25461e-06
-7.82318e-07
4.41641e-06
-2.14818e-06
3.38961e-06
-3.26509e-06
2.25383e-06
-4.17837e-06
9.50399e-07
-5.34888e-06
-4.68944e-07
-9.17611e-06
-1.11962e-06
-1.78623e-05
-2.21263e-05
2.25223e-07
1.78356e-06
7.87216e-07
4.59613e-06
1.59661e-06
6.13724e-06
2.5892e-06
6.83722e-06
3.73263e-06
7.07842e-06
4.92445e-06
6.99528e-06
6.01714e-06
6.5674e-06
6.89299e-06
5.79518e-06
7.48933e-06
4.75666e-06
7.7829e-06
3.55726e-06
7.76587e-06
2.29528e-06
7.43975e-06
1.04821e-06
6.75893e-06
-1.01494e-07
5.79114e-06
-1.18039e-06
4.57692e-06
-2.05087e-06
3.23986e-06
-2.84131e-06
1.83365e-06
-3.94267e-06
3.14265e-07
-7.65672e-06
-4.98781e-07
-1.70493e-05
-2.26251e-05
-8.57912e-08
1.86935e-06
2.19317e-07
4.29103e-06
1.04551e-06
5.31104e-06
2.21883e-06
5.6639e-06
3.58238e-06
5.71487e-06
5.0031e-06
5.57456e-06
6.33616e-06
5.23435e-06
7.45784e-06
4.67349e-06
8.27747e-06
3.93703e-06
8.75114e-06
3.08358e-06
8.84853e-06
2.1979e-06
8.56789e-06
1.32885e-06
7.92791e-06
5.38493e-07
6.91707e-06
-1.69551e-07
5.64183e-06
-7.75638e-07
4.23334e-06
-1.43282e-06
2.86858e-06
-2.57791e-06
1.5701e-06
-6.35825e-06
3.71213e-07
-1.58504e-05
-2.22539e-05
-4.05898e-07
2.27525e-06
-2.51615e-07
4.13674e-06
5.26961e-07
4.53246e-06
1.75935e-06
4.43151e-06
3.2389e-06
4.23532e-06
4.78824e-06
4.02522e-06
6.25945e-06
3.76314e-06
7.5389e-06
3.39404e-06
8.52268e-06
2.95326e-06
9.16315e-06
2.44311e-06
9.42394e-06
1.9371e-06
9.31811e-06
1.43469e-06
8.85187e-06
1.00473e-06
8.07986e-06
6.02455e-07
7.07429e-06
2.29933e-07
5.97632e-06
-3.34844e-07
4.9398e-06
-1.54139e-06
3.71264e-06
-5.1311e-06
1.7508e-06
-1.38885e-05
-2.05031e-05
-4.03108e-06
6.30633e-06
-3.6496e-06
3.75526e-06
-1.84199e-06
2.72485e-06
1.89168e-07
2.40035e-06
2.20133e-06
2.22316e-06
4.1691e-06
2.05746e-06
6.03207e-06
1.90016e-06
7.71716e-06
1.70895e-06
9.15011e-06
1.52031e-06
1.02987e-05
1.29454e-06
1.11364e-05
1.09938e-06
1.1685e-05
8.86133e-07
1.19456e-05
7.44057e-07
1.19767e-05
5.71431e-07
1.17789e-05
4.27661e-07
1.13465e-05
9.7572e-08
1.07743e-05
-9.69234e-07
9.55961e-06
-3.91636e-06
5.41315e-06
-9.74207e-06
-1.50899e-05
6.30633e-06
1.00616e-05
1.27864e-05
1.51868e-05
1.741e-05
1.94674e-05
2.13676e-05
2.30765e-05
2.45968e-05
2.58914e-05
2.69908e-05
2.78769e-05
2.86209e-05
2.91924e-05
2.962e-05
2.97176e-05
2.87484e-05
2.4832e-05
1.50899e-05
)
;

boundaryField
{
    movingWall
    {
        type            calculated;
        value           uniform 0;
    }
    fixedWalls
    {
        type            calculated;
        value           uniform 0;
    }
    frontAndBack
    {
        type            empty;
        value           nonuniform List<scalar> 0();
    }
}


// ************************************************************************* //
