/*--------------------------------*- C++ -*----------------------------------*\
| =========                 |                                                 |
| \\      /  F ield         | OpenFOAM: The Open Source CFD Toolbox           |
|  \\    /   O peration     | Version:  2212                                  |
|   \\  /    A nd           | Website:  www.openfoam.com                      |
|    \\/     M anipulation  |                                                 |
\*---------------------------------------------------------------------------*/
FoamFile
{
    version     2.0;
    format      ascii;
    arch        "LSB;label=32;scalar=64";
    class       volScalarField;
    location    "14";
    object      p;
}
// * * * * * * * * * * * * * * * * * * * * * * * * * * * * * * * * * * * * * //

dimensions      [0 2 -2 0 0 0 0];

internalField   nonuniform List<scalar> 
400
(
2.07122e-07
-0.000150813
-0.000534897
-0.0010721
-0.00173283
-0.00249432
-0.00318545
-0.00359803
-0.0035658
-0.00293453
-0.00154897
0.000618996
0.00324922
0.00551373
0.0065334
0.00592249
0.00400166
0.00214922
0.00111022
0.00104117
0.000116072
-5.83455e-05
-0.000377291
-0.000764468
-0.00124439
-0.00188852
-0.00270665
-0.00354399
-0.00408048
-0.0039389
-0.00284689
-0.000825294
0.00168898
0.00396054
0.00512432
0.0047427
0.00310257
0.00137432
0.000592728
0.000683773
0.000536189
0.000264718
-7.75744e-05
-0.000559935
-0.00134765
-0.00258106
-0.00421964
-0.00598433
-0.00740315
-0.00794448
-0.00726478
-0.00546255
-0.00289217
-0.000195139
0.00179127
0.00242727
0.00170832
0.000501617
-0.000396575
-0.000393283
0.0011517
0.000741016
0.000191625
-0.000775118
-0.00245153
-0.00493835
-0.00799576
-0.0111212
-0.0137041
-0.0151777
-0.0152075
-0.0138406
-0.0112943
-0.00802972
-0.00475288
-0.00221038
-0.000871059
-0.000706901
-0.00128952
-0.00191884
0.00158311
0.000973498
-2.31364e-05
-0.00192445
-0.00500715
-0.0091807
-0.0139144
-0.0184805
-0.022217
-0.0246537
-0.0255294
-0.0247236
-0.0223642
-0.0187442
-0.0143053
-0.00965638
-0.00559279
-0.00294959
-0.00219395
-0.00401867
0.00129317
0.00044481
-0.00119763
-0.0043048
-0.00900559
-0.0148813
-0.0210736
-0.0267161
-0.0311921
-0.0341795
-0.0355463
-0.0351903
-0.0331976
-0.0297194
-0.0249
-0.0189616
-0.0125059
-0.00694903
-0.00440157
-0.00652488
-4.85147e-05
-0.00114778
-0.00349977
-0.00779731
-0.0139332
-0.0211152
-0.0282371
-0.0344087
-0.0391297
-0.0422331
-0.0437208
-0.0436114
-0.0419736
-0.0388795
-0.0343115
-0.0281578
-0.0205396
-0.0127035
-0.00785545
-0.00774864
-0.00245071
-0.00374244
-0.00669895
-0.0119139
-0.0190406
-0.0269827
-0.0345051
-0.0407802
-0.0454519
-0.0484782
-0.0499409
-0.0499322
-0.0485314
-0.0457893
-0.0416631
-0.0359274
-0.0283263
-0.0193717
-0.0118229
-0.00798115
-0.0055379
-0.00691551
-0.0102641
-0.0160225
-0.0236589
-0.0318904
-0.0394524
-0.0456141
-0.0501387
-0.0530589
-0.054488
-0.0545281
-0.0532539
-0.0507268
-0.046963
-0.0418128
-0.0348685
-0.0259483
-0.0167098
-0.00999514
-0.00873404
-0.0100862
-0.0135981
-0.0195428
-0.0272871
-0.035488
-0.0429132
-0.048911
-0.0533108
-0.0561688
-0.0575928
-0.057664
-0.0564456
-0.0540123
-0.0504522
-0.0457613
-0.0396348
-0.0315247
-0.0223219
-0.0143405
-0.0115044
-0.0127582
-0.0162197
-0.0220548
-0.0296078
-0.0375895
-0.0448275
-0.0507005
-0.055044
-0.0578955
-0.0593379
-0.0594294
-0.0582201
-0.0557901
-0.0522878
-0.0478532
-0.0424319
-0.0353833
-0.0271986
-0.0191799
-0.0135496
-0.014619
-0.0178563
-0.0233159
-0.0304316
-0.0380636
-0.0451187
-0.0509508
-0.0553302
-0.0582417
-0.0597294
-0.0598318
-0.0585897
-0.0560842
-0.0525165
-0.0481389
-0.0432075
-0.0370569
-0.0300325
-0.0224178
-0.0148376
-0.0155681
-0.0183521
-0.0232106
-0.0296938
-0.0368794
-0.0437654
-0.049641
-0.0541559
-0.057202
-0.0587711
-0.0588782
-0.0575589
-0.0549168
-0.051178
-0.0466565
-0.041966
-0.0363006
-0.0302265
-0.0228964
-0.015468
-0.0157223
-0.0177775
-0.0217466
-0.02739
-0.0340321
-0.0407511
-0.0467412
-0.0514937
-0.0547691
-0.0564831
-0.0566241
-0.0552024
-0.0523537
-0.0483467
-0.0435823
-0.0387311
-0.0331418
-0.0280999
-0.0202796
-0.0155745
-0.0152983
-0.0163382
-0.019088
-0.0236533
-0.0296344
-0.036172
-0.0423363
-0.0474282
-0.0510401
-0.0529809
-0.0531842
-0.0516916
-0.048592
-0.0442272
-0.0390542
-0.0337821
-0.0280718
-0.0242317
-0.0143851
-0.0152769
-0.0145503
-0.0142609
-0.0154261
-0.018685
-0.0238949
-0.0302317
-0.0366151
-0.0421383
-0.0462018
-0.0484899
-0.048867
-0.0473537
-0.0440213
-0.0392492
-0.0335191
-0.0276414
-0.0216294
-0.0180536
-0.00383295
-0.0146622
-0.0136183
-0.011707
-0.0110812
-0.0129538
-0.0173805
-0.0235343
-0.0301707
-0.0361937
-0.040812
-0.0435791
-0.0442622
-0.0428511
-0.0393767
-0.0341855
-0.0276899
-0.0206823
-0.0132762
-0.00678578
0.016053
-0.0145833
-0.0126573
-0.00864857
-0.0062347
-0.00691017
-0.0107459
-0.016818
-0.0237402
-0.0302989
-0.0355396
-0.038904
-0.0400355
-0.0388779
-0.0354483
-0.0298961
-0.0222759
-0.0128726
-0.000688107
0.0166951
0.0570639
-0.0117947
-0.0118308
-0.00572619
-0.00177509
-0.00176506
-0.00540482
-0.0115753
-0.0188151
-0.0258758
-0.0316878
-0.0356626
-0.0373622
-0.0366856
-0.0333556
-0.0272244
-0.0175416
-0.00314822
0.0204904
0.0607044
0.129821
-0.0295169
-0.0106298
-0.000608942
0.00308076
0.00244818
-0.00155709
-0.00799958
-0.0155536
-0.0229764
-0.0291741
-0.0335322
-0.0355883
-0.0352015
-0.031956
-0.0252278
-0.0128601
0.00942262
0.0511716
0.122878
0.226076
)
;

boundaryField
{
    movingWall
    {
        type            zeroGradient;
    }
    fixedWalls
    {
        type            zeroGradient;
    }
    frontAndBack
    {
        type            empty;
    }
}


// ************************************************************************* //
