/*--------------------------------*- C++ -*----------------------------------*\
| =========                 |                                                 |
| \\      /  F ield         | OpenFOAM: The Open Source CFD Toolbox           |
|  \\    /   O peration     | Version:  2212                                  |
|   \\  /    A nd           | Website:  www.openfoam.com                      |
|    \\/     M anipulation  |                                                 |
\*---------------------------------------------------------------------------*/
FoamFile
{
    version     2.0;
    format      ascii;
    arch        "LSB;label=32;scalar=64";
    class       volScalarField;
    location    "14";
    object      T;
}
// * * * * * * * * * * * * * * * * * * * * * * * * * * * * * * * * * * * * * //

dimensions      [0 0 0 1 0 0 0];

internalField   nonuniform List<scalar> 
400
(
0.95296
0.953964
0.956004
0.959024
0.962546
0.965758
0.96806
0.969398
0.970121
0.970612
0.971058
0.971519
0.972012
0.972521
0.972968
0.973223
0.973078
0.972308
0.971038
0.969998
0.954245
0.955477
0.957946
0.96148
0.965219
0.967975
0.969325
0.969798
0.969961
0.970083
0.970333
0.970806
0.971538
0.972486
0.973459
0.974167
0.974159
0.973099
0.971432
0.970231
0.956254
0.95791
0.96098
0.964678
0.967589
0.968824
0.968784
0.968201
0.967471
0.966919
0.966826
0.967388
0.968614
0.970464
0.972606
0.974547
0.975471
0.974558
0.972155
0.970665
0.958223
0.960315
0.963664
0.966662
0.967944
0.967387
0.965775
0.963723
0.961695
0.960195
0.959609
0.96026
0.962067
0.965069
0.968856
0.972838
0.975925
0.976682
0.974019
0.97168
0.959737
0.96208
0.965168
0.966842
0.966204
0.96372
0.960245
0.956416
0.952915
0.950362
0.949208
0.949832
0.952133
0.956193
0.961646
0.967902
0.973863
0.977832
0.977369
0.973565
0.960734
0.963065
0.965455
0.965514
0.962893
0.958422
0.953003
0.947438
0.942586
0.939103
0.937449
0.937926
0.940524
0.945291
0.951986
0.960107
0.968693
0.976153
0.979861
0.976324
0.961287
0.963369
0.964811
0.963236
0.958767
0.952458
0.945307
0.938322
0.93246
0.928362
0.926407
0.926753
0.929446
0.934505
0.941844
0.951152
0.961653
0.971881
0.979487
0.980282
0.961521
0.963238
0.96373
0.960723
0.954668
0.946792
0.938254
0.930243
0.923747
0.919338
0.917268
0.917561
0.920225
0.925258
0.932681
0.942466
0.954195
0.966548
0.977094
0.9824
0.961536
0.962863
0.962522
0.958374
0.951091
0.942046
0.932539
0.923868
0.917012
0.912458
0.91034
0.910611
0.913219
0.918105
0.925285
0.934935
0.947171
0.961124
0.974026
0.981444
0.961416
0.962419
0.961511
0.956652
0.948577
0.938758
0.928617
0.919523
0.912429
0.907751
0.905549
0.905758
0.908303
0.913065
0.919947
0.929127
0.941193
0.956108
0.97125
0.98072
0.961207
0.961984
0.960761
0.955564
0.947111
0.936938
0.926532
0.917258
0.910025
0.905204
0.902842
0.902898
0.90531
0.909937
0.916557
0.925171
0.93659
0.951763
0.96867
0.980258
0.960934
0.961606
0.960372
0.955303
0.946959
0.93686
0.926507
0.917229
0.909904
0.904911
0.902328
0.902139
0.904302
0.908679
0.914982
0.92299
0.933464
0.94833
0.966604
0.980006
0.960593
0.961262
0.96022
0.955611
0.947781
0.938162
0.92822
0.919214
0.911986
0.906927
0.904153
0.903668
0.905459
0.909399
0.915196
0.922503
0.931825
0.945817
0.964974
0.979978
0.960161
0.960928
0.960288
0.956509
0.949659
0.940976
0.931829
0.923383
0.916438
0.911412
0.908469
0.907617
0.90889
0.912165
0.917188
0.923567
0.931591
0.944357
0.963922
0.980132
0.959596
0.960514
0.96027
0.957396
0.951768
0.944378
0.936432
0.928957
0.922667
0.917959
0.915029
0.913874
0.914555
0.916976
0.920937
0.926173
0.932811
0.943935
0.963375
0.980474
0.958927
0.960037
0.960306
0.958488
0.954345
0.948585
0.942185
0.935998
0.930636
0.926452
0.923638
0.922223
0.922224
0.92362
0.92629
0.930109
0.935245
0.944388
0.963359
0.981011
0.95826
0.959352
0.959784
0.958728
0.955953
0.95192
0.947312
0.942755
0.938692
0.935399
0.932998
0.93156
0.931039
0.93149
0.932906
0.935268
0.939052
0.946457
0.964467
0.981926
0.957789
0.959107
0.959931
0.959518
0.957962
0.955535
0.952637
0.949648
0.946849
0.944449
0.942524
0.941163
0.940355
0.940154
0.940687
0.941903
0.944686
0.950379
0.966541
0.98308
0.951443
0.957707
0.957703
0.957496
0.956659
0.955537
0.954254
0.953059
0.951962
0.951152
0.950558
0.95029
0.950306
0.950586
0.951344
0.952314
0.954799
0.959127
0.971386
0.985056
0.965893
0.970018
0.972228
0.973555
0.974266
0.974712
0.974948
0.975187
0.975356
0.975619
0.975852
0.976202
0.976529
0.976971
0.977398
0.977989
0.978744
0.980336
0.983509
0.989099
)
;

boundaryField
{
    movingWall
    {
        type            fixedValue;
        value           uniform 1;
    }
    fixedWalls
    {
        type            zeroGradient;
    }
    frontAndBack
    {
        type            empty;
    }
}


// ************************************************************************* //
