/*--------------------------------*- C++ -*----------------------------------*\
| =========                 |                                                 |
| \\      /  F ield         | OpenFOAM: The Open Source CFD Toolbox           |
|  \\    /   O peration     | Version:  2212                                  |
|   \\  /    A nd           | Website:  www.openfoam.com                      |
|    \\/     M anipulation  |                                                 |
\*---------------------------------------------------------------------------*/
FoamFile
{
    version     2.0;
    format      ascii;
    arch        "LSB;label=32;scalar=64";
    class       volScalarField;
    location    "7.9";
    object      p;
}
// * * * * * * * * * * * * * * * * * * * * * * * * * * * * * * * * * * * * * //

dimensions      [0 2 -2 0 0 0 0];

internalField   nonuniform List<scalar> 
400
(
-6.032e-08
-0.000151034
-0.000535014
-0.00107211
-0.0017327
-0.00249401
-0.003185
-0.00359749
-0.00356524
-0.00293402
-0.00154863
0.000619048
0.00324909
0.00551376
0.00653403
0.00592408
0.00400407
0.00215205
0.00111308
0.00104394
0.000115843
-5.85288e-05
-0.000377385
-0.000764493
-0.00124434
-0.00188834
-0.00270625
-0.00354334
-0.00407965
-0.00393805
-0.00284622
-0.00082491
0.00168916
0.00396086
0.00512522
0.00474448
0.00310525
0.00137727
0.000595689
0.00068659
0.000535875
0.000264492
-7.77096e-05
-0.00055998
-0.00134752
-0.00258059
-0.00421866
-0.00598277
-0.00740111
-0.00794225
-0.00726272
-0.00546081
-0.00289075
-0.000193823
0.00179286
0.00242946
0.00171117
0.000504749
-0.000393415
-0.000390296
0.00115117
0.000740583
0.000191364
-0.000775105
-0.002451
-0.00493698
-0.00799332
-0.0111176
-0.0136996
-0.0151727
-0.0152025
-0.0138359
-0.0112902
-0.00802622
-0.00474974
-0.00220733
-0.000867946
-0.000703726
-0.00128627
-0.00191568
0.00158218
0.000972764
-2.34989e-05
-0.00192412
-0.00500568
-0.00917765
-0.0139096
-0.0184739
-0.0222088
-0.0246446
-0.0255199
-0.0247146
-0.022356
-0.0187372
-0.0142995
-0.00965164
-0.00558885
-0.00294621
-0.00219083
-0.00401527
0.00129196
0.000443914
-0.00119784
-0.00430372
-0.00900258
-0.0148759
-0.0210655
-0.0267055
-0.0311794
-0.0341653
-0.0355316
-0.035176
-0.0331846
-0.0297081
-0.0248907
-0.0189542
-0.0125004
-0.00694491
-0.00439817
-0.00652106
-4.96612e-05
-0.0011485
-0.00349942
-0.00779501
-0.0139281
-0.0211068
-0.0282254
-0.0343937
-0.039112
-0.0422135
-0.0437004
-0.0435914
-0.041955
-0.0388632
-0.034298
-0.0281471
-0.0205317
-0.0126979
-0.00785142
-0.00774518
-0.00245136
-0.00374254
-0.00669762
-0.01191
-0.0190332
-0.0269713
-0.0344896
-0.0407609
-0.0454292
-0.048453
-0.0499146
-0.0499061
-0.048507
-0.0457677
-0.041645
-0.0359129
-0.0283153
-0.019364
-0.0118179
-0.00797791
-0.00553769
-0.00691467
-0.0102615
-0.0160169
-0.0236493
-0.0318762
-0.0394334
-0.0455906
-0.0501112
-0.0530284
-0.0544561
-0.0544964
-0.0532239
-0.0507001
-0.0469405
-0.0417947
-0.0348546
-0.0259382
-0.0167031
-0.0099909
-0.00873285
-0.0100843
-0.0135943
-0.0195356
-0.0272755
-0.0354714
-0.0428914
-0.0488842
-0.0532796
-0.0561342
-0.0575564
-0.0576277
-0.0564111
-0.0539815
-0.050426
-0.0457402
-0.0396184
-0.0315124
-0.0223132
-0.0143342
-0.0115024
-0.0127555
-0.0162149
-0.0220466
-0.0295949
-0.0375713
-0.0448039
-0.0506715
-0.0550104
-0.0578583
-0.0592987
-0.0593902
-0.0581829
-0.0557567
-0.0522594
-0.0478303
-0.042414
-0.0353698
-0.0271885
-0.0191719
-0.0135471
-0.0146158
-0.017851
-0.0233072
-0.0304182
-0.038045
-0.0450945
-0.0509212
-0.0552959
-0.0582037
-0.0596894
-0.0597918
-0.0585518
-0.0560502
-0.0524877
-0.0481158
-0.0431898
-0.0370435
-0.0300222
-0.0224091
-0.014835
-0.0155649
-0.018347
-0.0232023
-0.0296811
-0.0368617
-0.0437422
-0.0496126
-0.0541227
-0.0571653
-0.0587324
-0.0588396
-0.0575223
-0.0548843
-0.0511507
-0.0466351
-0.04195
-0.0362889
-0.0302175
-0.0228886
-0.0154654
-0.0157193
-0.017773
-0.0217394
-0.027379
-0.0340163
-0.0407303
-0.0467154
-0.0514633
-0.0547353
-0.0564474
-0.0565885
-0.055169
-0.0523244
-0.0483228
-0.0435642
-0.0387185
-0.0331333
-0.0280933
-0.0202743
-0.0155722
-0.0152959
-0.0163348
-0.0190826
-0.0236448
-0.0296218
-0.0361548
-0.0423144
-0.047402
-0.0510106
-0.0529496
-0.0531531
-0.0516627
-0.0485671
-0.0442078
-0.0390408
-0.0337742
-0.0280679
-0.0242289
-0.0143838
-0.0152749
-0.0145484
-0.0142588
-0.0154229
-0.0186795
-0.0238861
-0.0302188
-0.0365978
-0.0421169
-0.0461772
-0.0484637
-0.048841
-0.0473299
-0.0440017
-0.039235
-0.033511
-0.0276387
-0.0216305
-0.0180564
-0.00383634
-0.0146606
-0.0136171
-0.0117062
-0.0110803
-0.0129516
-0.0173757
-0.0235259
-0.0301583
-0.0361773
-0.0407925
-0.043558
-0.0442411
-0.0428321
-0.0393619
-0.0341762
-0.0276866
-0.0206847
-0.0132828
-0.00679462
0.0160451
-0.0145826
-0.0126568
-0.00864909
-0.00623608
-0.00691109
-0.0107449
-0.0168138
-0.0237321
-0.0302871
-0.0355247
-0.0388873
-0.0400188
-0.0388632
-0.0354373
-0.0298904
-0.0222765
-0.0128793
-0.000699531
0.0166816
0.0570527
-0.0117947
-0.0118312
-0.00572814
-0.00177839
-0.00176833
-0.00540652
-0.0115741
-0.0188102
-0.0258671
-0.0316759
-0.0356489
-0.0373482
-0.0366731
-0.0333466
-0.0272207
-0.0175443
-0.00315721
0.0204765
0.0606893
0.129809
-0.0295166
-0.0106307
-0.000611719
0.00307658
0.00244393
-0.00155988
-0.00799954
-0.0155499
-0.0229689
-0.0291634
-0.0335195
-0.0355751
-0.0351897
-0.0319475
-0.0252241
-0.0128622
0.00941437
0.0511589
0.122864
0.226065
)
;

boundaryField
{
    movingWall
    {
        type            zeroGradient;
    }
    fixedWalls
    {
        type            zeroGradient;
    }
    frontAndBack
    {
        type            empty;
    }
}


// ************************************************************************* //
