/*--------------------------------*- C++ -*----------------------------------*\
| =========                 |                                                 |
| \\      /  F ield         | OpenFOAM: The Open Source CFD Toolbox           |
|  \\    /   O peration     | Version:  2212                                  |
|   \\  /    A nd           | Website:  www.openfoam.com                      |
|    \\/     M anipulation  |                                                 |
\*---------------------------------------------------------------------------*/
FoamFile
{
    version     2.0;
    format      ascii;
    arch        "LSB;label=32;scalar=64";
    class       surfaceScalarField;
    location    "7.9";
    object      phi;
}
// * * * * * * * * * * * * * * * * * * * * * * * * * * * * * * * * * * * * * //

dimensions      [0 3 -1 0 0 0 0];

oriented        oriented;

internalField   nonuniform List<scalar> 
760
(
1.56057e-07
-1.56051e-07
2.93531e-07
-1.37475e-07
3.09863e-07
-1.63317e-08
1.83553e-07
1.2631e-07
-1.20404e-07
3.03957e-07
-6.65939e-07
5.45535e-07
-1.48513e-06
8.19194e-07
-2.49055e-06
1.00542e-06
-3.4799e-06
9.89353e-07
-4.21986e-06
7.3996e-07
-4.54355e-06
3.23688e-07
-4.3534e-06
-1.9015e-07
-3.59375e-06
-7.59655e-07
-2.37922e-06
-1.21452e-06
-9.40452e-07
-1.43877e-06
3.47227e-07
-1.28768e-06
1.08951e-06
-7.4228e-07
1.03284e-06
5.6664e-08
4.60917e-07
5.71925e-07
4.60916e-07
1.24972e-07
-2.81022e-07
7.44601e-08
-8.69624e-08
-2.97166e-07
3.55295e-07
-1.07895e-06
9.08089e-07
-2.31577e-06
1.54078e-06
-3.92695e-06
2.15672e-06
-5.66157e-06
2.55381e-06
-7.2061e-06
2.54994e-06
-8.33591e-06
2.11916e-06
-8.94126e-06
1.34532e-06
-8.97529e-06
3.57713e-07
-8.41547e-06
-7.49967e-07
-7.29315e-06
-1.88197e-06
-5.64185e-06
-2.86583e-06
-3.60591e-06
-3.47471e-06
-1.49053e-06
-3.40306e-06
1.78333e-07
-2.41114e-06
8.58703e-07
-6.23706e-07
5.25601e-07
9.05027e-07
9.86517e-07
-1.27665e-07
-1.53358e-07
-6.33992e-07
4.19365e-07
-1.62487e-06
1.34618e-06
-3.14116e-06
2.42438e-06
-5.05687e-06
3.45648e-06
-7.07237e-06
4.17222e-06
-8.87217e-06
4.35362e-06
-1.02762e-05
3.95399e-06
-1.12329e-05
3.07581e-06
-1.17344e-05
1.84683e-06
-1.17285e-05
3.51845e-07
-1.12697e-05
-1.20874e-06
-1.03373e-05
-2.81445e-06
-8.87692e-06
-4.32617e-06
-6.86901e-06
-5.48262e-06
-4.40299e-06
-5.86908e-06
-1.87878e-06
-4.93535e-06
-8.65486e-08
-2.41594e-06
2.94634e-07
5.23845e-07
1.28115e-06
-5.00505e-07
3.47147e-07
-1.55986e-06
1.47871e-06
-3.11911e-06
2.90543e-06
-5.08064e-06
4.38591e-06
-7.18414e-06
5.55998e-06
-9.12179e-06
6.10987e-06
-1.06914e-05
5.92318e-06
-1.18503e-05
5.11298e-06
-1.26268e-05
3.85228e-06
-1.30554e-05
2.2754e-06
-1.31205e-05
4.16949e-07
-1.28811e-05
-1.44812e-06
-1.22985e-05
-3.39704e-06
-1.12709e-05
-5.35378e-06
-9.66757e-06
-7.08596e-06
-7.36385e-06
-8.1728e-06
-4.3984e-06
-7.9008e-06
-1.37807e-06
-5.43627e-06
1.20674e-07
-9.74895e-07
1.40182e-06
-8.61826e-07
1.20897e-06
-2.36135e-06
2.97824e-06
-4.23209e-06
4.77617e-06
-6.27906e-06
6.43288e-06
-8.2211e-06
7.50202e-06
-9.83552e-06
7.72429e-06
-1.10457e-05
7.13332e-06
-1.1878e-05
5.94537e-06
-1.23945e-05
4.36871e-06
-1.26676e-05
2.54851e-06
-1.27882e-05
5.37528e-07
-1.27426e-05
-1.49364e-06
-1.25222e-05
-3.61748e-06
-1.20479e-05
-5.82806e-06
-1.11336e-05
-8.00032e-06
-9.49121e-06
-9.81516e-06
-6.82141e-06
-1.05706e-05
-3.2227e-06
-9.03498e-06
-2.61218e-07
-3.93638e-06
1.14061e-06
-1.08688e-06
2.29586e-06
-2.7841e-06
4.67546e-06
-4.67753e-06
6.6696e-06
-6.53522e-06
8.29057e-06
-8.13288e-06
9.09967e-06
-9.33949e-06
8.9309e-06
-1.0151e-05
7.94487e-06
-1.06326e-05
6.42697e-06
-1.08745e-05
4.61057e-06
-1.09763e-05
2.65033e-06
-1.10595e-05
6.20677e-07
-1.11101e-05
-1.44298e-06
-1.11445e-05
-3.5831e-06
-1.11337e-05
-5.83886e-06
-1.09244e-05
-8.20965e-06
-1.01895e-05
-1.055e-05
-8.43486e-06
-1.23253e-05
-5.24433e-06
-1.22255e-05
-1.15857e-06
-8.02213e-06
-1.79663e-08
-1.11094e-06
3.4068e-06
-2.75869e-06
6.32321e-06
-4.45632e-06
8.36722e-06
-5.99203e-06
9.82628e-06
-7.20573e-06
1.03134e-05
-8.0351e-06
9.76027e-06
-8.51788e-06
8.42765e-06
-8.74105e-06
6.65014e-06
-8.8081e-06
4.67762e-06
-8.81577e-06
2.658e-06
-8.84623e-06
6.51131e-07
-8.91767e-06
-1.37153e-06
-9.05006e-06
-3.45071e-06
-9.25501e-06
-5.6339e-06
-9.47648e-06
-7.98819e-06
-9.48361e-06
-1.05429e-05
-8.75767e-06
-1.30512e-05
-6.54027e-06
-1.44429e-05
-2.42458e-06
-1.21378e-05
-2.44255e-06
-9.36325e-07
4.34312e-06
-2.34833e-06
7.73521e-06
-3.73594e-06
9.75484e-06
-4.91568e-06
1.1006e-05
-5.78659e-06
1.11843e-05
-6.33187e-06
1.03055e-05
-6.60869e-06
8.70447e-06
-6.70805e-06
6.7495e-06
-6.72581e-06
4.69538e-06
-6.73473e-06
2.66693e-06
-6.77022e-06
6.86616e-07
-6.84908e-06
-1.29267e-06
-6.99225e-06
-3.30754e-06
-7.23036e-06
-5.39579e-06
-7.58095e-06
-7.63759e-06
-7.95392e-06
-1.01699e-05
-7.94012e-06
-1.3065e-05
-6.72159e-06
-1.56614e-05
-3.58921e-06
-1.52702e-05
-6.03176e-06
-6.25816e-07
4.96894e-06
-1.6892e-06
8.79859e-06
-2.72317e-06
1.07888e-05
-3.5631e-06
1.1846e-05
-4.1535e-06
1.17747e-05
-4.50453e-06
1.06566e-05
-4.6751e-06
8.87505e-06
-4.74355e-06
6.81795e-06
-4.78203e-06
4.73386e-06
-4.83378e-06
2.71868e-06
-4.90866e-06
7.61499e-07
-5.01287e-06
-1.18847e-06
-5.15615e-06
-3.16426e-06
-5.36706e-06
-5.18489e-06
-5.70075e-06
-7.3039e-06
-6.17133e-06
-9.69933e-06
-6.56193e-06
-1.26744e-05
-6.13213e-06
-1.60912e-05
-3.92654e-06
-1.74758e-05
-9.9583e-06
-2.33135e-07
5.20207e-06
-8.94673e-07
9.46013e-06
-1.56703e-06
1.14612e-05
-2.09738e-06
1.23763e-05
-2.45807e-06
1.21354e-05
-2.67338e-06
1.08719e-05
-2.79151e-06
8.99318e-06
-2.86568e-06
6.89212e-06
-2.94035e-06
4.80854e-06
-3.03739e-06
2.81571e-06
-3.15948e-06
8.83596e-07
-3.30614e-06
-1.04181e-06
-3.47741e-06
-2.99299e-06
-3.68534e-06
-4.97695e-06
-3.98033e-06
-7.00891e-06
-4.44479e-06
-9.23487e-06
-5.02724e-06
-1.2092e-05
-5.12683e-06
-1.59917e-05
-3.56041e-06
-1.90422e-05
-1.35187e-05
1.63755e-07
5.03832e-06
-7.03618e-08
9.69424e-06
-4.03729e-07
1.17945e-05
-6.55159e-07
1.26277e-05
-8.1058e-07
1.22908e-05
-9.01124e-07
1.09624e-05
-9.66157e-07
9.05821e-06
-1.03754e-06
6.9635e-06
-1.13181e-06
4.90281e-06
-1.25675e-06
2.94064e-06
-1.4149e-06
1.04175e-06
-1.60841e-06
-8.48302e-07
-1.8357e-06
-2.7657e-06
-2.09443e-06
-4.71822e-06
-2.4118e-06
-6.69154e-06
-2.87927e-06
-8.76741e-06
-3.56227e-06
-1.1409e-05
-4.02689e-06
-1.5527e-05
-3.02671e-06
-2.00424e-05
-1.65454e-05
5.02335e-07
4.53598e-06
7.00542e-07
9.49603e-06
7.43933e-07
1.17511e-05
7.79685e-07
1.2592e-05
8.24658e-07
1.22458e-05
8.53543e-07
1.09335e-05
8.46691e-07
9.06506e-06
7.95911e-07
7.01428e-06
7.02029e-07
4.99669e-06
5.66749e-07
3.07593e-06
3.84856e-07
1.22364e-06
1.5016e-07
-6.13606e-07
-1.38897e-07
-2.47664e-06
-4.88957e-07
-4.36816e-06
-9.036e-07
-6.27689e-06
-1.42628e-06
-8.24473e-06
-2.20448e-06
-1.06308e-05
-2.95406e-06
-1.47774e-05
-2.46099e-06
-2.05355e-05
-1.90064e-05
7.59502e-07
3.77648e-06
1.35912e-06
8.89641e-06
1.75349e-06
1.13568e-05
2.08445e-06
1.2261e-05
2.3589e-06
1.19714e-05
2.5467e-06
1.07457e-05
2.63978e-06
8.97199e-06
2.64883e-06
7.00523e-06
2.58782e-06
5.0577e-06
2.46315e-06
3.2006e-06
2.26717e-06
1.41962e-06
1.98582e-06
-3.32247e-07
1.61972e-06
-2.11055e-06
1.16399e-06
-3.91243e-06
6.14363e-07
-5.72727e-06
-8.02981e-08
-7.55007e-06
-9.54054e-07
-9.757e-06
-1.91719e-06
-1.38143e-05
-1.92431e-06
-2.05283e-05
-2.09307e-05
8.75177e-07
2.9013e-06
1.81836e-06
7.95323e-06
2.56319e-06
1.0612e-05
3.20706e-06
1.16172e-05
3.75746e-06
1.1421e-05
4.17116e-06
1.0332e-05
4.43235e-06
8.7108e-06
4.55499e-06
6.8826e-06
4.56189e-06
5.05079e-06
4.46806e-06
3.29443e-06
4.2713e-06
1.61638e-06
3.93899e-06
6.72676e-11
3.49187e-06
-1.66342e-06
2.90431e-06
-3.32487e-06
2.17759e-06
-5.00054e-06
1.33081e-06
-6.70329e-06
2.73617e-07
-8.69981e-06
-9.53727e-07
-1.2587e-05
-1.42516e-06
-2.00569e-05
-2.23559e-05
8.11057e-07
2.09025e-06
1.96421e-06
6.80007e-06
3.01152e-06
9.56464e-06
3.98927e-06
1.06394e-05
4.87054e-06
1.05397e-05
5.58934e-06
9.61324e-06
6.10657e-06
8.19357e-06
6.42515e-06
6.56401e-06
6.56583e-06
4.91012e-06
6.54644e-06
3.31382e-06
6.36515e-06
1.79767e-06
6.01926e-06
3.45949e-07
5.47572e-06
-1.11988e-06
4.74203e-06
-2.59118e-06
3.81036e-06
-4.06887e-06
2.70974e-06
-5.60267e-06
1.4007e-06
-7.39077e-06
-1.49446e-07
-1.10368e-05
-9.09424e-07
-1.92969e-05
-2.32653e-05
5.8117e-07
1.50908e-06
1.76949e-06
5.61175e-06
3.11421e-06
8.21993e-06
4.47146e-06
9.28215e-06
5.74378e-06
9.26739e-06
6.83254e-06
8.52448e-06
7.67233e-06
7.35378e-06
8.25046e-06
5.98589e-06
8.57918e-06
4.58139e-06
8.67511e-06
3.21789e-06
8.54488e-06
1.9279e-06
8.1856e-06
7.05234e-07
7.55314e-06
-4.87423e-07
6.66494e-06
-1.70298e-06
5.50838e-06
-2.91231e-06
4.12449e-06
-4.21878e-06
2.5872e-06
-5.85348e-06
9.68139e-07
-9.41777e-06
-1.3935e-07
-1.81894e-05
-2.34047e-05
1.54172e-07
1.3549e-06
1.04807e-06
4.71785e-06
2.5324e-06
6.7356e-06
4.26198e-06
7.55257e-06
5.99146e-06
7.5379e-06
7.5331e-06
6.98284e-06
8.78421e-06
6.10268e-06
9.71494e-06
5.05515e-06
1.03203e-05
3.976e-06
1.06117e-05
2.9265e-06
1.0595e-05
1.94461e-06
1.02757e-05
1.02453e-06
9.60756e-06
1.8073e-07
8.61302e-06
-7.0844e-07
7.28192e-06
-1.58121e-06
5.66644e-06
-2.6033e-06
3.92772e-06
-4.11476e-06
2.2499e-06
-7.73995e-06
6.56626e-07
-1.65962e-05
-2.2748e-05
-5.19021e-07
1.87392e-06
2.03528e-07
3.9953e-06
1.76716e-06
5.17197e-06
3.84011e-06
5.47961e-06
6.00521e-06
5.3728e-06
7.97546e-06
5.01259e-06
9.61424e-06
4.4639e-06
1.088e-05
3.78944e-06
1.17551e-05
3.1009e-06
1.22557e-05
2.4259e-06
1.23852e-05
1.81507e-06
1.21634e-05
1.24633e-06
1.16144e-05
7.29688e-07
1.07087e-05
1.97333e-07
9.45081e-06
-3.23359e-07
7.91454e-06
-1.06703e-06
6.28574e-06
-2.48596e-06
4.46613e-06
-5.92034e-06
2.05948e-06
-1.41895e-05
-2.06885e-05
-4.18142e-06
6.05535e-06
-3.64402e-06
3.4579e-06
-1.24401e-06
2.77195e-06
1.56196e-06
2.67364e-06
4.30998e-06
2.62478e-06
6.85303e-06
2.46955e-06
9.07742e-06
2.2395e-06
1.09227e-05
1.94417e-06
1.23703e-05
1.65333e-06
1.3447e-05
1.34911e-06
1.41701e-05
1.09205e-06
1.45841e-05
8.32316e-07
1.46767e-05
6.3708e-07
1.44569e-05
4.17154e-07
1.39205e-05
2.12963e-07
1.30836e-05
-2.30065e-07
1.19339e-05
-1.33629e-06
1.01164e-05
-4.10284e-06
5.63948e-06
-9.71258e-06
-1.50491e-05
6.05535e-06
9.51325e-06
1.22852e-05
1.49588e-05
1.75836e-05
2.00532e-05
2.22927e-05
2.42368e-05
2.58902e-05
2.72393e-05
2.83313e-05
2.91637e-05
2.98007e-05
3.02179e-05
3.04309e-05
3.02008e-05
2.88645e-05
2.47616e-05
1.50491e-05
)
;

boundaryField
{
    movingWall
    {
        type            calculated;
        value           uniform 0;
    }
    fixedWalls
    {
        type            calculated;
        value           uniform 0;
    }
    frontAndBack
    {
        type            empty;
        value           nonuniform List<scalar> 0();
    }
}


// ************************************************************************* //
