/*--------------------------------*- C++ -*----------------------------------*\
| =========                 |                                                 |
| \\      /  F ield         | OpenFOAM: The Open Source CFD Toolbox           |
|  \\    /   O peration     | Version:  2212                                  |
|   \\  /    A nd           | Website:  www.openfoam.com                      |
|    \\/     M anipulation  |                                                 |
\*---------------------------------------------------------------------------*/
FoamFile
{
    version     2.0;
    format      ascii;
    arch        "LSB;label=32;scalar=64";
    class       volScalarField;
    location    "14.9";
    object      p;
}
// * * * * * * * * * * * * * * * * * * * * * * * * * * * * * * * * * * * * * //

dimensions      [0 2 -2 0 0 0 0];

internalField   nonuniform List<scalar> 
400
(
1.38345e-07
-0.000150889
-0.000534974
-0.00107218
-0.00173291
-0.00249439
-0.00318553
-0.0035981
-0.00356588
-0.00293461
-0.00154904
0.000618923
0.00324914
0.00551365
0.00653332
0.00592241
0.00400158
0.00214914
0.00111013
0.00104108
0.000115996
-5.84228e-05
-0.000377368
-0.000764544
-0.00124447
-0.0018886
-0.00270672
-0.00354406
-0.00408056
-0.00393898
-0.00284697
-0.000825368
0.0016889
0.00396047
0.00512425
0.00474261
0.00310248
0.00137423
0.00059264
0.000683687
0.000536111
0.000264641
-7.7652e-05
-0.000560011
-0.00134773
-0.00258113
-0.00421971
-0.00598441
-0.00740323
-0.00794456
-0.00726486
-0.00546263
-0.00289224
-0.000195215
0.00179119
0.00242719
0.00170824
0.000501531
-0.000396662
-0.000393368
0.00115163
0.000740937
0.000191547
-0.000775195
-0.00245161
-0.00493842
-0.00799584
-0.0111213
-0.0137041
-0.0151778
-0.0152076
-0.0138407
-0.0112944
-0.0080298
-0.00475296
-0.00221046
-0.000871143
-0.000706986
-0.0012896
-0.00191892
0.00158303
0.00097342
-2.32145e-05
-0.00192453
-0.00500723
-0.00918078
-0.0139145
-0.0184806
-0.0222171
-0.0246538
-0.0255295
-0.0247237
-0.0223642
-0.0187442
-0.0143054
-0.00965647
-0.00559288
-0.00294967
-0.00219403
-0.00401875
0.00129309
0.000444732
-0.00119771
-0.00430488
-0.00900567
-0.0148814
-0.0210737
-0.0267162
-0.0311923
-0.0341796
-0.0355464
-0.0351904
-0.0331977
-0.0297195
-0.0249002
-0.0189617
-0.012506
-0.00694912
-0.00440166
-0.00652497
-4.85915e-05
-0.00114786
-0.00349985
-0.00779739
-0.0139333
-0.0211153
-0.0282372
-0.0344088
-0.0391298
-0.0422332
-0.0437209
-0.0436115
-0.0419737
-0.0388796
-0.0343117
-0.0281579
-0.0205397
-0.0127036
-0.00785554
-0.00774872
-0.00245078
-0.00374251
-0.00669903
-0.011914
-0.0190407
-0.0269828
-0.0345052
-0.0407804
-0.0454521
-0.0484783
-0.049941
-0.0499323
-0.0485315
-0.0457895
-0.0416633
-0.0359275
-0.0283264
-0.0193718
-0.011823
-0.00798124
-0.00553797
-0.00691559
-0.0102641
-0.0160226
-0.023659
-0.0318905
-0.0394525
-0.0456142
-0.0501388
-0.053059
-0.0544882
-0.0545283
-0.053254
-0.050727
-0.0469632
-0.0418129
-0.0348687
-0.0259484
-0.0167099
-0.00999522
-0.00873412
-0.0100863
-0.0135982
-0.0195428
-0.0272872
-0.0354882
-0.0429133
-0.0489111
-0.053311
-0.056169
-0.057593
-0.0576642
-0.0564457
-0.0540125
-0.0504523
-0.0457615
-0.039635
-0.0315248
-0.022322
-0.0143406
-0.0115045
-0.0127583
-0.0162198
-0.0220549
-0.0296079
-0.0375896
-0.0448276
-0.0507006
-0.0550442
-0.0578957
-0.0593381
-0.0594296
-0.0582203
-0.0557902
-0.052288
-0.0478534
-0.042432
-0.0353834
-0.0271987
-0.01918
-0.0135497
-0.0146191
-0.0178564
-0.023316
-0.0304317
-0.0380637
-0.0451188
-0.0509509
-0.0553303
-0.0582419
-0.0597296
-0.059832
-0.0585899
-0.0560843
-0.0525167
-0.048139
-0.0432077
-0.0370571
-0.0300326
-0.0224179
-0.0148377
-0.0155682
-0.0183522
-0.0232107
-0.029694
-0.0368796
-0.0437655
-0.0496412
-0.054156
-0.0572022
-0.0587713
-0.0588784
-0.057559
-0.054917
-0.0511781
-0.0466567
-0.0419661
-0.0363007
-0.0302267
-0.0228965
-0.0154681
-0.0157224
-0.0177776
-0.0217467
-0.0273901
-0.0340322
-0.0407512
-0.0467414
-0.0514938
-0.0547693
-0.0564832
-0.0566242
-0.0552025
-0.0523538
-0.0483469
-0.0435824
-0.0387312
-0.0331419
-0.0281
-0.0202797
-0.0155746
-0.0152984
-0.0163383
-0.0190881
-0.0236534
-0.0296346
-0.0361721
-0.0423365
-0.0474284
-0.0510403
-0.052981
-0.0531843
-0.0516918
-0.0485921
-0.0442273
-0.0390543
-0.0337822
-0.0280719
-0.0242318
-0.0143852
-0.015277
-0.0145503
-0.014261
-0.0154262
-0.0186851
-0.023895
-0.0302318
-0.0366152
-0.0421384
-0.0462019
-0.0484901
-0.0488671
-0.0473538
-0.0440215
-0.0392493
-0.0335193
-0.0276415
-0.0216295
-0.0180537
-0.00383305
-0.0146622
-0.0136184
-0.011707
-0.0110812
-0.0129538
-0.0173805
-0.0235344
-0.0301708
-0.0361938
-0.0408121
-0.0435793
-0.0442623
-0.0428512
-0.0393769
-0.0341856
-0.02769
-0.0206824
-0.0132763
-0.00678581
0.0160529
-0.0145834
-0.0126573
-0.00864864
-0.00623478
-0.00691024
-0.010746
-0.0168181
-0.0237403
-0.030299
-0.0355397
-0.0389041
-0.0400356
-0.038878
-0.0354484
-0.0298962
-0.022276
-0.0128727
-0.000688147
0.0166951
0.0570639
-0.0117948
-0.0118309
-0.00572626
-0.00177516
-0.00176513
-0.0054049
-0.0115754
-0.0188152
-0.0258759
-0.0316879
-0.0356628
-0.0373623
-0.0366857
-0.0333557
-0.0272244
-0.0175417
-0.00314827
0.0204903
0.0607044
0.129821
-0.029517
-0.0106299
-0.000609014
0.00308069
0.00244812
-0.00155717
-0.00799966
-0.0155536
-0.0229765
-0.0291742
-0.0335323
-0.0355884
-0.0352016
-0.0319561
-0.0252279
-0.0128602
0.00942258
0.0511715
0.122878
0.226076
)
;

boundaryField
{
    movingWall
    {
        type            zeroGradient;
    }
    fixedWalls
    {
        type            zeroGradient;
    }
    frontAndBack
    {
        type            empty;
    }
}


// ************************************************************************* //
