/*--------------------------------*- C++ -*----------------------------------*\
| =========                 |                                                 |
| \\      /  F ield         | OpenFOAM: The Open Source CFD Toolbox           |
|  \\    /   O peration     | Version:  2212                                  |
|   \\  /    A nd           | Website:  www.openfoam.com                      |
|    \\/     M anipulation  |                                                 |
\*---------------------------------------------------------------------------*/
FoamFile
{
    version     2.0;
    format      ascii;
    arch        "LSB;label=32;scalar=64";
    class       volScalarField;
    location    "14.9";
    object      T;
}
// * * * * * * * * * * * * * * * * * * * * * * * * * * * * * * * * * * * * * //

dimensions      [0 0 0 1 0 0 0];

internalField   nonuniform List<scalar> 
400
(
0.960596
0.96143
0.963124
0.965631
0.968557
0.97123
0.973149
0.974268
0.974875
0.975287
0.975662
0.976051
0.976467
0.976896
0.977274
0.977492
0.977374
0.976732
0.975672
0.974804
0.961663
0.962686
0.964736
0.967672
0.970782
0.973077
0.974204
0.9746
0.974735
0.974837
0.975046
0.975445
0.976061
0.976861
0.977683
0.978282
0.978281
0.977397
0.976003
0.975
0.963328
0.964704
0.967256
0.97033
0.972752
0.97378
0.973743
0.973249
0.972633
0.972166
0.972087
0.97256
0.973592
0.975151
0.976956
0.978595
0.979379
0.978621
0.97661
0.975364
0.96496
0.9667
0.969484
0.971976
0.973038
0.972564
0.971204
0.969473
0.967763
0.966499
0.966005
0.966553
0.968075
0.970604
0.973794
0.977149
0.979753
0.980399
0.978173
0.976215
0.966215
0.968163
0.970728
0.972114
0.971567
0.969472
0.966543
0.963316
0.960366
0.958215
0.957243
0.957769
0.959707
0.963128
0.96772
0.972989
0.97801
0.981357
0.980979
0.977795
0.96704
0.968976
0.970956
0.970988
0.968775
0.965007
0.960441
0.955752
0.951664
0.948729
0.947336
0.947737
0.949927
0.953944
0.959584
0.966425
0.973655
0.979937
0.983064
0.980106
0.967495
0.969221
0.970405
0.969066
0.965299
0.959982
0.953957
0.94807
0.94313
0.939676
0.938029
0.93832
0.94059
0.944855
0.951039
0.958882
0.967728
0.97634
0.982743
0.983421
0.967684
0.969104
0.969491
0.966948
0.961845
0.955208
0.948013
0.941261
0.935786
0.932069
0.930324
0.930571
0.932818
0.937061
0.943318
0.951564
0.961445
0.971849
0.980729
0.985194
0.967692
0.968784
0.968471
0.964968
0.958831
0.951208
0.943196
0.935888
0.930108
0.926268
0.924482
0.924711
0.92691
0.931031
0.937084
0.945218
0.955529
0.967282
0.978146
0.984389
0.967588
0.968409
0.967619
0.963517
0.956712
0.948438
0.939891
0.932224
0.926244
0.922299
0.920442
0.920618
0.922765
0.92678
0.932584
0.940323
0.950492
0.963058
0.975808
0.98378
0.96741
0.968043
0.966988
0.962601
0.955477
0.946904
0.938133
0.930315
0.924216
0.92015
0.918159
0.918206
0.920241
0.924142
0.929725
0.936989
0.946614
0.959398
0.973636
0.983391
0.967179
0.967726
0.966663
0.962382
0.955349
0.946838
0.938112
0.93029
0.924114
0.919904
0.917725
0.917566
0.91939
0.923082
0.928397
0.93515
0.94398
0.956506
0.971897
0.983179
0.966892
0.967439
0.966538
0.962643
0.956042
0.947936
0.939556
0.931964
0.92587
0.921604
0.919264
0.918856
0.920367
0.923689
0.928578
0.934739
0.942598
0.95439
0.970525
0.983155
0.966529
0.967161
0.9666
0.963403
0.957626
0.950308
0.942598
0.935479
0.929624
0.925386
0.922904
0.922186
0.923259
0.926021
0.930257
0.935636
0.942401
0.953161
0.969639
0.983285
0.966055
0.966816
0.966589
0.964153
0.959404
0.953175
0.946478
0.940177
0.934875
0.930906
0.928435
0.927462
0.928036
0.930078
0.933418
0.937833
0.94343
0.952806
0.969179
0.983572
0.965493
0.966418
0.966626
0.965079
0.96158
0.956722
0.951327
0.946113
0.941593
0.938066
0.935694
0.934501
0.934502
0.935679
0.937931
0.941151
0.945482
0.953188
0.969165
0.984025
0.964933
0.965843
0.966191
0.965286
0.962939
0.959536
0.95565
0.951809
0.948384
0.945608
0.943585
0.942373
0.941934
0.942315
0.943508
0.945501
0.948691
0.954932
0.970098
0.984795
0.964538
0.96564
0.96632
0.96596
0.964639
0.962588
0.960142
0.957622
0.955261
0.953239
0.951616
0.950469
0.949788
0.949619
0.950069
0.951094
0.953439
0.958236
0.971845
0.985766
0.959197
0.964454
0.964442
0.96426
0.963548
0.962599
0.961514
0.960505
0.959578
0.958894
0.958393
0.958166
0.958178
0.958413
0.959051
0.959867
0.96196
0.965604
0.975925
0.987429
0.971341
0.974806
0.976661
0.977773
0.978368
0.978741
0.978937
0.979136
0.979276
0.979496
0.97969
0.979984
0.980257
0.980629
0.980987
0.981484
0.982119
0.983458
0.986128
0.990832
)
;

boundaryField
{
    movingWall
    {
        type            fixedValue;
        value           uniform 1;
    }
    fixedWalls
    {
        type            zeroGradient;
    }
    frontAndBack
    {
        type            empty;
    }
}


// ************************************************************************* //
