/*--------------------------------*- C++ -*----------------------------------*\
| =========                 |                                                 |
| \\      /  F ield         | OpenFOAM: The Open Source CFD Toolbox           |
|  \\    /   O peration     | Version:  2212                                  |
|   \\  /    A nd           | Website:  www.openfoam.com                      |
|    \\/     M anipulation  |                                                 |
\*---------------------------------------------------------------------------*/
FoamFile
{
    version     2.0;
    format      ascii;
    arch        "LSB;label=32;scalar=64";
    class       volScalarField;
    location    "14.3";
    object      T;
}
// * * * * * * * * * * * * * * * * * * * * * * * * * * * * * * * * * * * * * //

dimensions      [0 0 0 1 0 0 0];

internalField   nonuniform List<scalar> 
400
(
0.955666
0.95661
0.958526
0.961363
0.964672
0.967692
0.969857
0.971118
0.971799
0.972262
0.972683
0.973118
0.973585
0.974066
0.974488
0.974731
0.974595
0.973872
0.972676
0.971697
0.956873
0.958031
0.96035
0.96367
0.967185
0.969777
0.971048
0.971493
0.971646
0.971761
0.971996
0.972443
0.973134
0.97403
0.97495
0.97562
0.975615
0.974618
0.973047
0.971917
0.958759
0.960315
0.963201
0.966676
0.969412
0.970573
0.970533
0.969982
0.969292
0.96877
0.968681
0.969212
0.97037
0.972118
0.974141
0.975976
0.976851
0.975994
0.97373
0.972326
0.960608
0.962574
0.965721
0.968539
0.969742
0.969213
0.96769
0.96575
0.963834
0.962418
0.961864
0.962479
0.964186
0.967021
0.970598
0.974359
0.977276
0.977995
0.975487
0.973283
0.962029
0.964231
0.967132
0.968703
0.968096
0.965748
0.962466
0.958848
0.955542
0.95313
0.952041
0.952631
0.954804
0.958639
0.963788
0.969696
0.975326
0.979076
0.978644
0.97506
0.962965
0.965155
0.967398
0.967446
0.964967
0.960743
0.955625
0.950369
0.945785
0.942496
0.940934
0.941385
0.943839
0.948342
0.954666
0.962336
0.970444
0.977488
0.980991
0.97766
0.963482
0.965437
0.966785
0.965292
0.96107
0.95511
0.948355
0.941757
0.93622
0.932349
0.930503
0.93083
0.933374
0.938154
0.945086
0.953878
0.963796
0.973455
0.980636
0.98139
0.9637
0.96531
0.965763
0.962918
0.957198
0.949758
0.941693
0.934125
0.927989
0.923824
0.921869
0.922146
0.924664
0.929419
0.936431
0.945675
0.956752
0.968418
0.978377
0.983386
0.963712
0.964954
0.964621
0.960699
0.953819
0.945275
0.936294
0.928103
0.921626
0.917323
0.915323
0.91558
0.918045
0.922662
0.929445
0.938562
0.950119
0.963297
0.97548
0.982483
0.963598
0.964535
0.963666
0.959072
0.951444
0.942169
0.932589
0.923998
0.917296
0.912877
0.910797
0.910995
0.9134
0.9179
0.924403
0.933076
0.944473
0.95856
0.972859
0.9818
0.963399
0.964124
0.962958
0.958045
0.95006
0.94045
0.93062
0.921858
0.915025
0.91047
0.908239
0.908293
0.910573
0.914945
0.9212
0.929339
0.940126
0.954457
0.970423
0.981364
0.963141
0.963768
0.962592
0.957799
0.949917
0.940377
0.930596
0.921831
0.914911
0.910194
0.907754
0.907576
0.909621
0.913757
0.919713
0.927279
0.937174
0.951215
0.968472
0.981126
0.962819
0.963444
0.96245
0.958091
0.950693
0.941607
0.932214
0.923707
0.916878
0.912099
0.909478
0.909021
0.910715
0.914438
0.919915
0.926819
0.935625
0.948842
0.966933
0.9811
0.962412
0.96313
0.962516
0.958941
0.952468
0.944266
0.935624
0.927646
0.921085
0.916337
0.913557
0.912752
0.913956
0.917051
0.921797
0.927824
0.935404
0.947463
0.96594
0.981245
0.961879
0.962741
0.962501
0.95978
0.954461
0.94748
0.939973
0.932912
0.92697
0.922523
0.919755
0.918665
0.919309
0.921596
0.925339
0.930286
0.936557
0.947065
0.965423
0.981567
0.961247
0.962291
0.962538
0.960814
0.956897
0.951455
0.945408
0.939564
0.934499
0.930547
0.927889
0.926552
0.926554
0.927873
0.930396
0.934005
0.938857
0.947494
0.965408
0.982075
0.960618
0.961645
0.962047
0.961043
0.958418
0.954607
0.950253
0.945948
0.94211
0.938999
0.936732
0.935374
0.934882
0.935308
0.936646
0.938879
0.942454
0.949448
0.966455
0.982939
0.960174
0.961416
0.962188
0.961793
0.960319
0.958024
0.955285
0.952461
0.949817
0.94755
0.945731
0.944446
0.943683
0.943493
0.943997
0.945146
0.947775
0.953152
0.968413
0.984028
0.954183
0.96009
0.960084
0.959884
0.959091
0.958031
0.956817
0.955688
0.95465
0.953884
0.953323
0.953069
0.953084
0.953348
0.954064
0.95498
0.957326
0.961413
0.972988
0.985894
0.967818
0.97171
0.973794
0.975045
0.975715
0.976135
0.976357
0.976581
0.97674
0.976988
0.977207
0.977538
0.977845
0.978262
0.978665
0.979223
0.979936
0.981438
0.984434
0.989711
)
;

boundaryField
{
    movingWall
    {
        type            fixedValue;
        value           uniform 1;
    }
    fixedWalls
    {
        type            zeroGradient;
    }
    frontAndBack
    {
        type            empty;
    }
}


// ************************************************************************* //
