/*--------------------------------*- C++ -*----------------------------------*\
| =========                 |                                                 |
| \\      /  F ield         | OpenFOAM: The Open Source CFD Toolbox           |
|  \\    /   O peration     | Version:  2212                                  |
|   \\  /    A nd           | Website:  www.openfoam.com                      |
|    \\/     M anipulation  |                                                 |
\*---------------------------------------------------------------------------*/
FoamFile
{
    version     2.0;
    format      ascii;
    arch        "LSB;label=32;scalar=64";
    class       volVectorField;
    location    "5.3";
    object      U;
}
// * * * * * * * * * * * * * * * * * * * * * * * * * * * * * * * * * * * * * //

dimensions      [0 1 -1 0 0 0 0];

internalField   nonuniform List<vector> 
400
(
(0.00167603 -0.00167814 0)
(0.0048193 -0.00188544 0)
(0.00656011 -0.00119689 0)
(0.00564022 -0.000572564 0)
(0.00154087 0.000186295 0)
(-0.00684619 0.00173892 0)
(-0.0205957 0.00477594 0)
(-0.0394855 0.00871294 0)
(-0.0607122 0.0112668 0)
(-0.0790164 0.0104979 0)
(-0.0896981 0.00677501 0)
(-0.0903787 0.00168131 0)
(-0.0801917 -0.00359544 0)
(-0.0600154 -0.00825153 0)
(-0.0335945 -0.0108278 0)
(-0.00540046 -0.00978691 0)
(0.0166094 -0.00478752 0)
(0.0243834 0.00275617 0)
(0.0161409 0.00645299 0)
(0.00431042 0.00470764 0)
(0.00170911 -0.00504128 0)
(0.00313083 -0.00400686 0)
(-0.000459216 0.000598865 0)
(-0.0113603 0.00643779 0)
(-0.0314171 0.0140268 0)
(-0.0610727 0.023722 0)
(-0.0966907 0.0329842 0)
(-0.131242 0.0370152 0)
(-0.158721 0.0334651 0)
(-0.175847 0.0233859 0)
(-0.181213 0.0091308 0)
(-0.174878 -0.00693821 0)
(-0.157413 -0.0230996 0)
(-0.129564 -0.0368328 0)
(-0.093591 -0.0444959 0)
(-0.052232 -0.041801 0)
(-0.0114775 -0.0263476 0)
(0.0168003 -0.00133354 0)
(0.0178221 0.0161667 0)
(0.00553352 0.0147879 0)
(-0.000250772 -0.00573555 0)
(-0.00540264 0.000841257 0)
(-0.0196185 0.0142965 0)
(-0.0444654 0.0311825 0)
(-0.080219 0.0493402 0)
(-0.121987 0.0641789 0)
(-0.162052 0.070401 0)
(-0.194917 0.0659111 0)
(-0.218475 0.0521209 0)
(-0.232131 0.031521 0)
(-0.235897 0.00646248 0)
(-0.230439 -0.021014 0)
(-0.216069 -0.0487335 0)
(-0.192283 -0.0730708 0)
(-0.158815 -0.088884 0)
(-0.11563 -0.089134 0)
(-0.0645342 -0.0670098 0)
(-0.0138645 -0.0227385 0)
(0.00944956 0.0178265 0)
(0.00415429 0.0235275 0)
(-0.00347218 0.00050613 0)
(-0.0175003 0.0172626 0)
(-0.0434571 0.0414423 0)
(-0.0795406 0.0680547 0)
(-0.122713 0.0909612 0)
(-0.16551 0.103628 0)
(-0.201508 0.102703 0)
(-0.228775 0.0895173 0)
(-0.247575 0.0672351 0)
(-0.258511 0.0385637 0)
(-0.262422 0.00538237 0)
(-0.260112 -0.0309734 0)
(-0.25152 -0.06825 0)
(-0.235599 -0.103503 0)
(-0.210359 -0.131252 0)
(-0.173097 -0.142697 0)
(-0.121253 -0.125661 0)
(-0.0568065 -0.0708712 0)
(-0.00101319 0.00346254 0)
(0.00474124 0.0281739 0)
(-0.00665118 0.0148155 0)
(-0.028674 0.0440793 0)
(-0.0631573 0.0769534 0)
(-0.104227 0.108685 0)
(-0.146942 0.130924 0)
(-0.184157 0.137909 0)
(-0.212428 0.129251 0)
(-0.232156 0.10855 0)
(-0.24463 0.079676 0)
(-0.251579 0.0454171 0)
(-0.254692 0.00731221 0)
(-0.254892 -0.0338247 0)
(-0.251955 -0.076827 0)
(-0.245332 -0.120375 0)
(-0.232209 -0.160494 0)
(-0.207968 -0.188732 0)
(-0.166563 -0.189757 0)
(-0.103308 -0.142781 0)
(-0.0221843 -0.0389213 0)
(0.00736393 0.027021 0)
(-0.00848856 0.0348561 0)
(-0.0350879 0.0765306 0)
(-0.0729077 0.114721 0)
(-0.112974 0.147377 0)
(-0.150143 0.165671 0)
(-0.178932 0.165619 0)
(-0.198394 0.149451 0)
(-0.210079 0.122255 0)
(-0.215973 0.0883798 0)
(-0.21856 0.0508123 0)
(-0.219809 0.011022 0)
(-0.220723 -0.0305651 0)
(-0.221502 -0.074419 0)
(-0.222245 -0.120916 0)
(-0.220757 -0.168832 0)
(-0.211941 -0.21268 0)
(-0.187708 -0.238262 0)
(-0.139465 -0.218308 0)
(-0.0627497 -0.118862 0)
(0.00581659 0.0141428 0)
(-0.00826538 0.0569238 0)
(-0.0352359 0.109818 0)
(-0.0716302 0.150176 0)
(-0.106773 0.18078 0)
(-0.136327 0.193447 0)
(-0.156667 0.18607 0)
(-0.168511 0.16295 0)
(-0.173975 0.13023 0)
(-0.175472 0.0926779 0)
(-0.175505 0.0533113 0)
(-0.175584 0.0133707 0)
(-0.176389 -0.0270891 0)
(-0.178469 -0.0692078 0)
(-0.182362 -0.11426 0)
(-0.187417 -0.163359 0)
(-0.189995 -0.215354 0)
(-0.182198 -0.261265 0)
(-0.154027 -0.274856 0)
(-0.0992196 -0.205696 0)
(-0.00890194 -0.0146651 0)
(-0.00611063 0.0774509 0)
(-0.0296911 0.140286 0)
(-0.0612321 0.180831 0)
(-0.0896178 0.207865 0)
(-0.111558 0.214434 0)
(-0.125034 0.200128 0)
(-0.131652 0.170935 0)
(-0.133718 0.133832 0)
(-0.133689 0.0938136 0)
(-0.133512 0.0535938 0)
(-0.133874 0.0138962 0)
(-0.134961 -0.0256431 0)
(-0.137233 -0.0660406 0)
(-0.14138 -0.108517 0)
(-0.148012 -0.155051 0)
(-0.155806 -0.208005 0)
(-0.158771 -0.265422 0)
(-0.146528 -0.307743 0)
(-0.112081 -0.276903 0)
(-0.0308996 -0.0752602 0)
(-0.00271375 0.0934073 0)
(-0.0203383 0.165302 0)
(-0.0449946 0.205153 0)
(-0.0661211 0.228068 0)
(-0.0813333 0.229014 0)
(-0.0897699 0.209044 0)
(-0.0933333 0.175322 0)
(-0.094162 0.135335 0)
(-0.0943534 0.0940865 0)
(-0.0950782 0.0538067 0)
(-0.0963848 0.0145916 0)
(-0.0981819 -0.0243335 0)
(-0.100642 -0.0637409 0)
(-0.104271 -0.104324 0)
(-0.110217 -0.147715 0)
(-0.119205 -0.197866 0)
(-0.128076 -0.25922 0)
(-0.126348 -0.323004 0)
(-0.107342 -0.33437 0)
(-0.0372857 -0.16317 0)
(0.00122184 0.102507 0)
(-0.00889698 0.183082 0)
(-0.0255422 0.222653 0)
(-0.0394917 0.2422 0)
(-0.04893 0.238948 0)
(-0.0537612 0.214985 0)
(-0.0556757 0.178249 0)
(-0.0563231 0.136596 0)
(-0.05722 0.0949417 0)
(-0.0589122 0.054986 0)
(-0.0611733 0.0162708 0)
(-0.0638586 -0.0222508 0)
(-0.0669626 -0.0612257 0)
(-0.0706684 -0.100892 0)
(-0.0759131 -0.141964 0)
(-0.0842718 -0.188109 0)
(-0.0958445 -0.247676 0)
(-0.100535 -0.323816 0)
(-0.0950863 -0.371802 0)
(-0.0308912 -0.24223 0)
(0.00510323 0.103655 0)
(0.00296079 0.192643 0)
(-0.00535486 0.23311 0)
(-0.0124431 0.250197 0)
(-0.0168104 0.244093 0)
(-0.0186737 0.217882 0)
(-0.0193306 0.179836 0)
(-0.019823 0.137801 0)
(-0.0210901 0.0964471 0)
(-0.0233044 0.0570928 0)
(-0.0261775 0.0190061 0)
(-0.0296466 -0.0189538 0)
(-0.0337287 -0.0574788 0)
(-0.0383701 -0.0966552 0)
(-0.0441226 -0.136438 0)
(-0.0522305 -0.179265 0)
(-0.0656134 -0.234875 0)
(-0.0741696 -0.317536 0)
(-0.0811588 -0.396277 0)
(-0.0229285 -0.306741 0)
(0.00842164 0.0971952 0)
(0.0141747 0.193622 0)
(0.0140621 0.236618 0)
(0.0136721 0.252962 0)
(0.0142968 0.24586 0)
(0.0154954 0.219156 0)
(0.0163584 0.181121 0)
(0.0164157 0.139449 0)
(0.0152758 0.0986126 0)
(0.0129916 0.059869 0)
(0.00982236 0.0225212 0)
(0.00572616 -0.0145724 0)
(0.00055964 -0.0522301 0)
(-0.00553778 -0.0905812 0)
(-0.0129749 -0.129282 0)
(-0.0219175 -0.169377 0)
(-0.0376724 -0.219861 0)
(-0.0487548 -0.303871 0)
(-0.0679134 -0.408033 0)
(-0.0144638 -0.359618 0)
(0.010275 0.0842673 0)
(0.0233229 0.186045 0)
(0.0309633 0.23275 0)
(0.0368737 0.249514 0)
(0.0425154 0.24265 0)
(0.047449 0.21687 0)
(0.050863 0.180128 0)
(0.052512 0.13977 0)
(0.0523493 0.100109 0)
(0.0505886 0.0624713 0)
(0.0474611 0.0263387 0)
(0.0428611 -0.00937183 0)
(0.0366189 -0.0455785 0)
(0.0288488 -0.0824717 0)
(0.0187604 -0.119703 0)
(0.00748721 -0.157533 0)
(-0.0118865 -0.203556 0)
(-0.0243405 -0.285863 0)
(-0.0558958 -0.410561 0)
(-0.00615465 -0.401496 0)
(0.00981915 0.0670996 0)
(0.028895 0.170292 0)
(0.0441692 0.221699 0)
(0.0566679 0.240714 0)
(0.0679188 0.235756 0)
(0.0775625 0.212399 0)
(0.0847375 0.178132 0)
(0.0891418 0.139845 0)
(0.0908542 0.101782 0)
(0.0901818 0.0655016 0)
(0.0874619 0.0308579 0)
(0.0824183 -0.00317771 0)
(0.0749384 -0.0371772 0)
(0.0653015 -0.0717387 0)
(0.0521399 -0.106681 0)
(0.0372943 -0.14191 0)
(0.0129434 -0.183425 0)
(-8.66702e-05 -0.262651 0)
(-0.0448841 -0.406305 0)
(0.00273668 -0.435933 0)
(0.00688623 0.0493583 0)
(0.0292129 0.14866 0)
(0.0508796 0.203175 0)
(0.0696916 0.224003 0)
(0.0871052 0.221111 0)
(0.102737 0.200959 0)
(0.115343 0.170397 0)
(0.12424 0.135565 0)
(0.129344 0.100461 0)
(0.130908 0.0667714 0)
(0.129204 0.0347395 0)
(0.124277 0.00353514 0)
(0.115673 -0.0271563 0)
(0.104 -0.0582045 0)
(0.0870139 -0.0896678 0)
(0.0679345 -0.122172 0)
(0.038 -0.160098 0)
(0.0236594 -0.236611 0)
(-0.0345486 -0.39861 0)
(0.0134312 -0.464176 0)
(0.00237009 0.0346669 0)
(0.023509 0.123708 0)
(0.0507146 0.179582 0)
(0.0763536 0.202477 0)
(0.100934 0.202123 0)
(0.123733 0.185723 0)
(0.143104 0.159697 0)
(0.15783 0.129322 0)
(0.167498 0.0982136 0)
(0.172325 0.0680653 0)
(0.172259 0.039468 0)
(0.168019 0.012008 0)
(0.158213 -0.0146731 0)
(0.144541 -0.0413178 0)
(0.123353 -0.0682256 0)
(0.0999383 -0.0969353 0)
(0.0642362 -0.132082 0)
(0.0467892 -0.207023 0)
(-0.0228324 -0.386845 0)
(0.0284707 -0.485396 0)
(-0.00341566 0.0287131 0)
(0.00997877 0.101429 0)
(0.036895 0.148436 0)
(0.0686511 0.169094 0)
(0.101442 0.170267 0)
(0.13306 0.157974 0)
(0.160958 0.137565 0)
(0.183408 0.113214 0)
(0.199372 0.0880009 0)
(0.209223 0.063455 0)
(0.212106 0.0403201 0)
(0.209829 0.018467 0)
(0.199599 -0.00247843 0)
(0.185029 -0.0229977 0)
(0.160331 -0.0435695 0)
(0.133853 -0.0672754 0)
(0.0924992 -0.101219 0)
(0.0696642 -0.179666 0)
(-0.00448634 -0.369905 0)
(0.0521022 -0.491563 0)
(-0.013946 0.018614 0)
(-0.00750733 0.0881962 0)
(0.0190912 0.12407 0)
(0.0561965 0.137093 0)
(0.097218 0.136629 0)
(0.137471 0.127431 0)
(0.173602 0.112788 0)
(0.203331 0.0950442 0)
(0.225134 0.076626 0)
(0.240147 0.0585445 0)
(0.246144 0.041756 0)
(0.247043 0.0261468 0)
(0.237749 0.0118773 0)
(0.225991 -0.00184347 0)
(0.201119 -0.0158195 0)
(0.177294 -0.0347287 0)
(0.133129 -0.0675091 0)
(0.107625 -0.145834 0)
(0.0373761 -0.3261 0)
(0.0923284 -0.455865 0)
(-0.105972 0.0824862 0)
(-0.0777176 0.0690492 0)
(-0.0485789 0.073327 0)
(0.00367137 0.077782 0)
(0.0570653 0.0780769 0)
(0.109671 0.0737982 0)
(0.156721 0.0664698 0)
(0.198969 0.0570854 0)
(0.230996 0.0474437 0)
(0.259077 0.0378264 0)
(0.274779 0.0292073 0)
(0.289927 0.021265 0)
(0.290324 0.0145528 0)
(0.294499 0.00820093 0)
(0.27832 0.00126386 0)
(0.271231 -0.00987547 0)
(0.23205 -0.0354489 0)
(0.218017 -0.0953677 0)
(0.150187 -0.229723 0)
(0.170668 -0.341469 0)
(0.129995 0.103762 0)
(0.158375 0.0752768 0)
(0.212253 0.0532837 0)
(0.270759 0.0416674 0)
(0.323297 0.035942 0)
(0.375674 0.0319633 0)
(0.420194 0.028923 0)
(0.465435 0.0255838 0)
(0.498467 0.0229073 0)
(0.533667 0.0197184 0)
(0.55308 0.0175617 0)
(0.578888 0.0146294 0)
(0.585048 0.0131915 0)
(0.603432 0.0103777 0)
(0.594918 0.00941927 0)
(0.603493 0.00503169 0)
(0.567758 0.000114747 0)
(0.547655 -0.0183011 0)
(0.435768 -0.0504146 0)
(0.33679 -0.101393 0)
)
;

boundaryField
{
    movingWall
    {
        type            fixedValue;
        value           uniform (1 0 0);
    }
    fixedWalls
    {
        type            noSlip;
    }
    frontAndBack
    {
        type            empty;
    }
}


// ************************************************************************* //
