/*--------------------------------*- C++ -*----------------------------------*\
| =========                 |                                                 |
| \\      /  F ield         | OpenFOAM: The Open Source CFD Toolbox           |
|  \\    /   O peration     | Version:  2212                                  |
|   \\  /    A nd           | Website:  www.openfoam.com                      |
|    \\/     M anipulation  |                                                 |
\*---------------------------------------------------------------------------*/
FoamFile
{
    version     2.0;
    format      ascii;
    arch        "LSB;label=32;scalar=64";
    class       surfaceScalarField;
    location    "8.7";
    object      phi;
}
// * * * * * * * * * * * * * * * * * * * * * * * * * * * * * * * * * * * * * //

dimensions      [0 3 -1 0 0 0 0];

oriented        oriented;

internalField   nonuniform List<scalar> 
760
(
1.56053e-07
-1.56112e-07
2.93577e-07
-1.37523e-07
3.0993e-07
-1.63535e-08
1.83622e-07
1.26308e-07
-1.20352e-07
3.03974e-07
-6.65935e-07
5.45583e-07
-1.48521e-06
8.19278e-07
-2.49073e-06
1.00551e-06
-3.48015e-06
9.89426e-07
-4.22013e-06
7.39979e-07
-4.54379e-06
3.23654e-07
-4.35354e-06
-1.90247e-07
-3.59375e-06
-7.59787e-07
-2.37909e-06
-1.21466e-06
-9.40209e-07
-1.43888e-06
3.4752e-07
-1.28773e-06
1.08975e-06
-7.42228e-07
1.03298e-06
5.67739e-08
4.6096e-07
5.72016e-07
4.60961e-07
1.25006e-07
-2.81118e-07
7.4534e-08
-8.70518e-08
-2.97096e-07
3.55277e-07
-1.07893e-06
9.08145e-07
-2.31587e-06
1.54091e-06
-3.92722e-06
2.15693e-06
-5.662e-06
2.55406e-06
-7.20663e-06
2.55015e-06
-8.33649e-06
2.11929e-06
-8.94184e-06
1.34533e-06
-8.97581e-06
3.57621e-07
-8.41589e-06
-7.50169e-07
-7.29342e-06
-1.88225e-06
-5.64196e-06
-2.86613e-06
-3.60586e-06
-3.47498e-06
-1.49036e-06
-3.40323e-06
1.78555e-07
-2.41115e-06
8.58862e-07
-6.23537e-07
5.2566e-07
9.05215e-07
9.86622e-07
-1.27633e-07
-1.53485e-07
-6.33966e-07
4.19281e-07
-1.62492e-06
1.34623e-06
-3.14136e-06
2.42458e-06
-5.05726e-06
3.45682e-06
-7.07296e-06
4.17263e-06
-8.87293e-06
4.35402e-06
-1.02771e-05
3.95432e-06
-1.12338e-05
3.07601e-06
-1.17353e-05
1.84686e-06
-1.17294e-05
3.51702e-07
-1.12706e-05
-1.20902e-06
-1.0338e-05
-2.81485e-06
-8.87745e-06
-4.32665e-06
-6.86934e-06
-5.48309e-06
-4.40313e-06
-5.86944e-06
-1.87876e-06
-4.93551e-06
-8.64639e-08
-2.41583e-06
2.94665e-07
5.24085e-07
1.28129e-06
-5.00524e-07
3.47039e-07
-1.55995e-06
1.4787e-06
-3.11936e-06
2.90564e-06
-5.08111e-06
4.38633e-06
-7.18483e-06
5.56054e-06
-9.12269e-06
6.11048e-06
-1.06924e-05
5.92375e-06
-1.18515e-05
5.11343e-06
-1.26281e-05
3.85256e-06
-1.30567e-05
2.27548e-06
-1.31218e-05
4.16774e-07
-1.28823e-05
-1.44848e-06
-1.22996e-05
-3.39758e-06
-1.12718e-05
-5.35443e-06
-9.66827e-06
-7.08664e-06
-7.36431e-06
-8.17339e-06
-4.39862e-06
-7.90121e-06
-1.37807e-06
-5.43638e-06
1.20708e-07
-9.74691e-07
1.402e-06
-8.61904e-07
1.20894e-06
-2.36158e-06
2.97838e-06
-4.23254e-06
4.77659e-06
-6.27975e-06
6.43354e-06
-8.22201e-06
7.50281e-06
-9.83663e-06
7.7251e-06
-1.10469e-05
7.13405e-06
-1.18794e-05
5.94596e-06
-1.2396e-05
4.36909e-06
-1.26691e-05
2.54864e-06
-1.27897e-05
5.37357e-07
-1.27441e-05
-1.49407e-06
-1.25236e-05
-3.61814e-06
-1.20491e-05
-5.82889e-06
-1.11345e-05
-8.00119e-06
-9.49196e-06
-9.81598e-06
-6.82189e-06
-1.05713e-05
-3.22288e-06
-9.03539e-06
-2.6119e-07
-3.93638e-06
1.14081e-06
-1.08702e-06
2.29596e-06
-2.78444e-06
4.6758e-06
-4.6781e-06
6.67026e-06
-6.53604e-06
8.29147e-06
-8.1339e-06
9.10068e-06
-9.3407e-06
8.93189e-06
-1.01524e-05
7.94577e-06
-1.06342e-05
6.42771e-06
-1.08762e-05
4.61109e-06
-1.09781e-05
2.65055e-06
-1.10613e-05
6.20539e-07
-1.11118e-05
-1.44347e-06
-1.11461e-05
-3.58391e-06
-1.11351e-05
-5.83989e-06
-1.09255e-05
-8.21075e-06
-1.01905e-05
-1.0551e-05
-8.43556e-06
-1.23262e-05
-5.24475e-06
-1.22262e-05
-1.15863e-06
-8.0225e-06
-1.78236e-08
-1.11111e-06
3.40708e-06
-2.75909e-06
6.32378e-06
-4.45694e-06
8.36811e-06
-5.99286e-06
9.8274e-06
-7.20676e-06
1.03146e-05
-8.03631e-06
9.76144e-06
-8.51928e-06
8.42874e-06
-8.74265e-06
6.65108e-06
-8.80988e-06
4.67832e-06
-8.81769e-06
2.65837e-06
-8.8482e-06
6.5105e-07
-8.91959e-06
-1.37208e-06
-9.05181e-06
-3.45169e-06
-9.25653e-06
-5.63518e-06
-9.47771e-06
-7.98956e-06
-9.48459e-06
-1.05442e-05
-8.75845e-06
-1.30523e-05
-6.54083e-06
-1.44438e-05
-2.4248e-06
-1.21385e-05
-2.44262e-06
-9.36496e-07
4.34357e-06
-2.34871e-06
7.73599e-06
-3.73652e-06
9.75593e-06
-4.91645e-06
1.10073e-05
-5.78754e-06
1.11857e-05
-6.333e-06
1.03069e-05
-6.61003e-06
8.70576e-06
-6.70961e-06
6.75066e-06
-6.72759e-06
4.6963e-06
-6.73668e-06
2.66746e-06
-6.77225e-06
6.86616e-07
-6.85108e-06
-1.29325e-06
-6.9941e-06
-3.30866e-06
-7.23195e-06
-5.39732e-06
-7.58222e-06
-7.63929e-06
-7.95487e-06
-1.01715e-05
-7.94083e-06
-1.30664e-05
-6.72214e-06
-1.56625e-05
-3.58957e-06
-1.52711e-05
-6.0322e-06
-6.25954e-07
4.96953e-06
-1.68951e-06
8.79954e-06
-2.72364e-06
1.07901e-05
-3.56373e-06
1.18474e-05
-4.15428e-06
1.17762e-05
-4.50548e-06
1.06581e-05
-4.67625e-06
8.87652e-06
-4.74491e-06
6.81932e-06
-4.78359e-06
4.73498e-06
-4.8355e-06
2.71937e-06
-4.91047e-06
7.61589e-07
-5.01468e-06
-1.18905e-06
-5.15787e-06
-3.16547e-06
-5.36858e-06
-5.18661e-06
-5.70197e-06
-7.3059e-06
-6.17221e-06
-9.70128e-06
-6.56254e-06
-1.2676e-05
-6.13258e-06
-1.60925e-05
-3.92686e-06
-1.74768e-05
-9.95905e-06
-2.33212e-07
5.20274e-06
-8.94871e-07
9.4612e-06
-1.56734e-06
1.14625e-05
-2.09781e-06
1.23779e-05
-2.45861e-06
1.2137e-05
-2.67405e-06
1.08735e-05
-2.79233e-06
8.99481e-06
-2.86666e-06
6.89365e-06
-2.94148e-06
4.80981e-06
-3.03863e-06
2.81652e-06
-3.16081e-06
8.83767e-07
-3.3075e-06
-1.04236e-06
-3.47873e-06
-2.99424e-06
-3.68657e-06
-4.97878e-06
-3.98134e-06
-7.01112e-06
-4.44551e-06
-9.23712e-06
-5.02769e-06
-1.20938e-05
-5.12713e-06
-1.5993e-05
-3.5606e-06
-1.90433e-05
-1.35197e-05
1.6376e-07
5.03898e-06
-7.04153e-08
9.69538e-06
-4.03843e-07
1.1796e-05
-6.55334e-07
1.26294e-05
-8.1082e-07
1.22925e-05
-9.01438e-07
1.09642e-05
-9.66551e-07
9.05992e-06
-1.03801e-06
6.9651e-06
-1.13235e-06
4.90415e-06
-1.25735e-06
2.94151e-06
-1.41556e-06
1.04198e-06
-1.60912e-06
-8.48797e-07
-1.83644e-06
-2.76691e-06
-2.09517e-06
-4.72006e-06
-2.41247e-06
-6.69382e-06
-2.87976e-06
-8.76983e-06
-3.56254e-06
-1.14111e-05
-4.02704e-06
-1.55285e-05
-3.0268e-06
-2.00436e-05
-1.65465e-05
5.02418e-07
4.53656e-06
7.00645e-07
9.49715e-06
7.44042e-07
1.17526e-05
7.79793e-07
1.25936e-05
8.2476e-07
1.22475e-05
8.53638e-07
1.09353e-05
8.46787e-07
9.06677e-06
7.96021e-07
7.01587e-06
7.02148e-07
4.99802e-06
5.66862e-07
3.0768e-06
3.84938e-07
1.2239e-06
1.50184e-07
-6.14043e-07
-1.38946e-07
-2.47778e-06
-4.89092e-07
-4.36991e-06
-9.03791e-07
-6.27912e-06
-1.42644e-06
-8.24719e-06
-2.20452e-06
-1.0633e-05
-2.95404e-06
-1.4779e-05
-2.46098e-06
-2.05366e-05
-1.90074e-05
7.59664e-07
3.7769e-06
1.35938e-06
8.89743e-06
1.75382e-06
1.13581e-05
2.08485e-06
1.22626e-05
2.35935e-06
1.1973e-05
2.54722e-06
1.07474e-05
2.64036e-06
8.97362e-06
2.6495e-06
7.00674e-06
2.58858e-06
5.05894e-06
2.46395e-06
3.20143e-06
2.26797e-06
1.41989e-06
1.98653e-06
-3.3261e-07
1.62032e-06
-2.11157e-06
1.16445e-06
-3.91403e-06
6.14673e-07
-5.72934e-06
-8.01039e-08
-7.55241e-06
-9.53856e-07
-9.75923e-06
-1.91699e-06
-1.38159e-05
-1.92422e-06
-2.05294e-05
-2.09316e-05
8.75387e-07
2.90151e-06
1.81875e-06
7.95407e-06
2.56372e-06
1.06132e-05
3.20772e-06
1.16186e-05
3.75823e-06
1.14225e-05
4.17206e-06
1.03336e-05
4.43339e-06
8.71229e-06
4.55617e-06
6.88396e-06
4.5632e-06
5.05191e-06
4.46946e-06
3.29517e-06
4.27272e-06
1.61663e-06
3.94033e-06
-2.15894e-10
3.49307e-06
-1.66431e-06
2.90532e-06
-3.32628e-06
2.17837e-06
-5.00239e-06
1.33137e-06
-6.70542e-06
2.74019e-07
-8.70187e-06
-9.53404e-07
-1.25885e-05
-1.425e-06
-2.00578e-05
-2.23567e-05
8.11268e-07
2.09024e-06
1.96467e-06
6.80066e-06
3.01218e-06
9.56565e-06
3.99011e-06
1.06407e-05
4.87157e-06
1.05411e-05
5.59055e-06
9.61462e-06
6.10795e-06
8.19489e-06
6.42672e-06
6.56519e-06
6.56756e-06
4.91107e-06
6.54829e-06
3.31444e-06
6.36703e-06
1.79789e-06
6.0211e-06
3.45721e-07
5.47741e-06
-1.12062e-06
4.74349e-06
-2.59237e-06
3.81153e-06
-4.07043e-06
2.71059e-06
-5.60447e-06
1.40127e-06
-7.39255e-06
-1.49152e-07
-1.1038e-05
-9.09206e-07
-1.92978e-05
-2.32659e-05
5.81329e-07
1.50891e-06
1.76993e-06
5.61206e-06
3.1149e-06
8.22068e-06
4.47241e-06
9.28315e-06
5.74497e-06
9.26851e-06
6.83397e-06
8.52562e-06
7.67399e-06
7.35486e-06
8.25233e-06
5.98684e-06
8.58124e-06
4.58215e-06
8.6773e-06
3.21838e-06
8.54712e-06
1.92807e-06
8.18779e-06
7.05053e-07
7.55517e-06
-4.88004e-07
6.66673e-06
-1.70392e-06
5.50984e-06
-2.91354e-06
4.12556e-06
-4.22019e-06
2.58793e-06
-5.85491e-06
9.68667e-07
-9.41878e-06
-1.39109e-07
-1.819e-05
-2.3405e-05
1.54262e-07
1.35465e-06
1.04842e-06
4.71791e-06
2.53303e-06
6.73607e-06
4.2629e-06
7.55328e-06
5.99268e-06
7.53873e-06
7.53461e-06
6.9837e-06
8.78598e-06
6.1035e-06
9.71695e-06
5.05587e-06
1.03226e-05
3.97655e-06
1.06141e-05
2.92685e-06
1.05974e-05
1.94471e-06
1.02781e-05
1.02437e-06
9.60978e-06
1.80337e-07
8.61501e-06
-7.09147e-07
7.28356e-06
-1.5821e-06
5.66765e-06
-2.60429e-06
3.9285e-06
-4.11575e-06
2.25035e-06
-7.74063e-06
6.56795e-07
-1.65964e-05
-2.27482e-05
-5.19094e-07
1.87374e-06
2.03638e-07
3.99517e-06
1.76757e-06
5.17213e-06
3.84088e-06
5.47997e-06
6.00634e-06
5.37327e-06
7.97694e-06
5.0131e-06
9.61603e-06
4.4644e-06
1.0882e-05
3.78988e-06
1.17573e-05
3.10123e-06
1.22581e-05
2.4261e-06
1.23877e-05
1.81513e-06
1.21658e-05
1.24624e-06
1.16167e-05
7.29426e-07
1.07107e-05
1.969e-07
9.45243e-06
-3.23847e-07
7.91573e-06
-1.06759e-06
6.28648e-06
-2.48651e-06
4.46651e-06
-5.92066e-06
2.05964e-06
-1.41896e-05
-2.06885e-05
-4.18151e-06
6.05525e-06
-3.6441e-06
3.45777e-06
-1.2439e-06
2.77193e-06
1.56236e-06
2.67371e-06
4.3107e-06
2.62493e-06
6.85407e-06
2.46973e-06
9.07877e-06
2.2397e-06
1.09243e-05
1.94435e-06
1.23721e-05
1.65347e-06
1.3449e-05
1.3492e-06
1.4172e-05
1.09208e-06
1.4586e-05
8.32277e-07
1.46784e-05
6.36974e-07
1.44583e-05
4.17007e-07
1.39217e-05
2.12787e-07
1.30844e-05
-2.30303e-07
1.19344e-05
-1.33646e-06
1.01166e-05
-4.10288e-06
5.63954e-06
-9.71252e-06
-1.5049e-05
6.05525e-06
9.51302e-06
1.2285e-05
1.49587e-05
1.75836e-05
2.00533e-05
2.2293e-05
2.42374e-05
2.58908e-05
2.724e-05
2.83321e-05
2.91644e-05
2.98014e-05
3.02184e-05
3.04312e-05
3.02009e-05
2.88644e-05
2.47615e-05
1.5049e-05
)
;

boundaryField
{
    movingWall
    {
        type            calculated;
        value           uniform 0;
    }
    fixedWalls
    {
        type            calculated;
        value           uniform 0;
    }
    frontAndBack
    {
        type            empty;
        value           nonuniform List<scalar> 0();
    }
}


// ************************************************************************* //
