/*--------------------------------*- C++ -*----------------------------------*\
| =========                 |                                                 |
| \\      /  F ield         | OpenFOAM: The Open Source CFD Toolbox           |
|  \\    /   O peration     | Version:  2212                                  |
|   \\  /    A nd           | Website:  www.openfoam.com                      |
|    \\/     M anipulation  |                                                 |
\*---------------------------------------------------------------------------*/
FoamFile
{
    version     2.0;
    format      ascii;
    arch        "LSB;label=32;scalar=64";
    class       volVectorField;
    location    "8.7";
    object      U;
}
// * * * * * * * * * * * * * * * * * * * * * * * * * * * * * * * * * * * * * //

dimensions      [0 1 -1 0 0 0 0];

internalField   nonuniform List<vector> 
400
(
(0.00168149 -0.00168369 0)
(0.00483787 -0.00189207 0)
(0.00659001 -0.00120062 0)
(0.00567358 -0.000575057 0)
(0.00157108 0.000184051 0)
(-0.00682983 0.00173937 0)
(-0.020608 0.00478605 0)
(-0.0395397 0.00873539 0)
(-0.0608086 0.0112919 0)
(-0.0791346 0.0105121 0)
(-0.0898101 0.00677456 0)
(-0.0904616 0.00166937 0)
(-0.0802258 -0.00361586 0)
(-0.0599953 -0.00827428 0)
(-0.0335237 -0.0108466 0)
(-0.00529635 -0.00979509 0)
(0.0167201 -0.00477358 0)
(0.024468 0.00277623 0)
(0.0161776 0.00647169 0)
(0.00431636 0.00471687 0)
(0.00172007 -0.00506457 0)
(0.00316153 -0.0040317 0)
(-0.000418578 0.000588097 0)
(-0.0113311 0.00644159 0)
(-0.0314261 0.0140495 0)
(-0.0611482 0.0237726 0)
(-0.096843 0.0330597 0)
(-0.131454 0.0370908 0)
(-0.158967 0.0335162 0)
(-0.176098 0.0234011 0)
(-0.181446 0.00910997 0)
(-0.175076 -0.00698861 0)
(-0.157559 -0.0231723 0)
(-0.12965 -0.0369122 0)
(-0.093615 -0.0445642 0)
(-0.0521962 -0.0418382 0)
(-0.0114027 -0.026335 0)
(0.0168869 -0.00128079 0)
(0.0178707 0.0162222 0)
(0.00554196 0.0148191 0)
(-0.000239985 -0.00577909 0)
(-0.00538199 0.000802969 0)
(-0.0196101 0.0142995 0)
(-0.0445038 0.031235 0)
(-0.0803392 0.0494434 0)
(-0.122201 0.0643177 0)
(-0.162345 0.0705436 0)
(-0.195266 0.0660263 0)
(-0.218858 0.0521897 0)
(-0.232526 0.0315338 0)
(-0.236282 0.00641761 0)
(-0.230798 -0.021111 0)
(-0.216384 -0.04887 0)
(-0.19254 -0.0732239 0)
(-0.159004 -0.0890243 0)
(-0.115741 -0.0892286 0)
(-0.0645633 -0.0670296 0)
(-0.0138228 -0.0226671 0)
(0.00948051 0.0179159 0)
(0.00415542 0.0235788 0)
(-0.00347206 0.000454907 0)
(-0.0175149 0.0172415 0)
(-0.0435159 0.0415003 0)
(-0.079681 0.0681928 0)
(-0.122957 0.0911579 0)
(-0.165849 0.103845 0)
(-0.201919 0.1029 0)
(-0.229242 0.0896691 0)
(-0.248081 0.0673247 0)
(-0.259035 0.0385796 0)
(-0.262943 0.00531905 0)
(-0.260611 -0.031114 0)
(-0.251978 -0.068451 0)
(-0.236001 -0.103739 0)
(-0.21069 -0.131487 0)
(-0.173345 -0.142889 0)
(-0.121401 -0.125765 0)
(-0.0568446 -0.0708548 0)
(-0.000987826 0.00356326 0)
(0.00474226 0.0282389 0)
(-0.00666269 0.0147843 0)
(-0.0287296 0.0441118 0)
(-0.0632894 0.0770945 0)
(-0.104461 0.108919 0)
(-0.14728 0.131208 0)
(-0.184579 0.138196 0)
(-0.212917 0.129503 0)
(-0.2327 0.108746 0)
(-0.245217 0.0797966 0)
(-0.252193 0.0454476 0)
(-0.255312 0.00724225 0)
(-0.255494 -0.033994 0)
(-0.252516 -0.0770784 0)
(-0.245835 -0.120682 0)
(-0.232641 -0.160819 0)
(-0.208319 -0.18903 0)
(-0.166819 -0.189981 0)
(-0.103449 -0.142881 0)
(-0.022183 -0.0388562 0)
(0.00738152 0.0270993 0)
(-0.00851077 0.0348747 0)
(-0.0351773 0.0766406 0)
(-0.073093 0.114955 0)
(-0.113265 0.147704 0)
(-0.150528 0.166037 0)
(-0.179391 0.165973 0)
(-0.198916 0.149763 0)
(-0.210662 0.122505 0)
(-0.21661 0.0885446 0)
(-0.219241 0.0508704 0)
(-0.22051 0.0109572 0)
(-0.221411 -0.0307534 0)
(-0.222144 -0.0747147 0)
(-0.222819 -0.121285 0)
(-0.221248 -0.169231 0)
(-0.212347 -0.213064 0)
(-0.18803 -0.238594 0)
(-0.13969 -0.218546 0)
(-0.0628498 -0.118945 0)
(0.00584833 0.0142019 0)
(-0.00829293 0.0570072 0)
(-0.0353426 0.110014 0)
(-0.0718386 0.1505 0)
(-0.10708 0.181192 0)
(-0.136716 0.193886 0)
(-0.157122 0.186491 0)
(-0.169033 0.163328 0)
(-0.17457 0.130544 0)
(-0.176142 0.0928997 0)
(-0.17624 0.0534089 0)
(-0.176352 0.0133162 0)
(-0.177153 -0.0273053 0)
(-0.179187 -0.0695695 0)
(-0.182997 -0.11472 0)
(-0.187948 -0.163853 0)
(-0.190421 -0.215823 0)
(-0.182535 -0.261677 0)
(-0.154286 -0.275196 0)
(-0.099405 -0.205921 0)
(-0.00890834 -0.0146266 0)
(-0.00613587 0.0776037 0)
(-0.0297943 0.140567 0)
(-0.061431 0.181238 0)
(-0.089903 0.208354 0)
(-0.111914 0.214944 0)
(-0.125451 0.200617 0)
(-0.13214 0.171385 0)
(-0.134291 0.134223 0)
(-0.134352 0.0941091 0)
(-0.13425 0.0537481 0)
(-0.134656 0.0138645 0)
(-0.135749 -0.025883 0)
(-0.137982 -0.0664742 0)
(-0.142048 -0.109089 0)
(-0.148564 -0.155676 0)
(-0.156231 -0.208594 0)
(-0.159089 -0.265922 0)
(-0.146762 -0.308159 0)
(-0.112263 -0.277232 0)
(-0.0309673 -0.0753425 0)
(-0.00273026 0.0936238 0)
(-0.0204208 0.16566 0)
(-0.0451579 0.205632 0)
(-0.066355 0.228624 0)
(-0.0816248 0.229586 0)
(-0.090116 0.209599 0)
(-0.0937478 0.175847 0)
(-0.0946587 0.13581 0)
(-0.0949347 0.0944655 0)
(-0.0957288 0.0540272 0)
(-0.0970778 0.014594 0)
(-0.0988874 -0.024579 0)
(-0.101324 -0.0642235 0)
(-0.104893 -0.10499 0)
(-0.110741 -0.14847 0)
(-0.119605 -0.198592 0)
(-0.128361 -0.259825 0)
(-0.126535 -0.32349 0)
(-0.107489 -0.334796 0)
(-0.0373524 -0.163453 0)
(0.00121945 0.102771 0)
(-0.00894452 0.183503 0)
(-0.0256486 0.223188 0)
(-0.039649 0.242809 0)
(-0.0491293 0.239575 0)
(-0.0540024 0.2156 0)
(-0.0559714 0.178844 0)
(-0.0566833 0.137147 0)
(-0.0576429 0.0953946 0)
(-0.059384 0.055265 0)
(-0.0616763 0.0163091 0)
(-0.0643763 -0.0224858 0)
(-0.0674753 -0.0617272 0)
(-0.0711514 -0.101615 0)
(-0.076337 -0.142819 0)
(-0.0846019 -0.188963 0)
(-0.0960722 -0.248389 0)
(-0.100658 -0.324356 0)
(-0.0951788 -0.372263 0)
(-0.030925 -0.242605 0)
(0.00511862 0.103937 0)
(0.0029576 0.193104 0)
(-0.00539034 0.233683 0)
(-0.0125077 0.250843 0)
(-0.0168987 0.244758 0)
(-0.0187857 0.21854 0)
(-0.0194735 0.180478 0)
(-0.0200011 0.138403 0)
(-0.0212987 0.0969479 0)
(-0.0235342 0.0574143 0)
(-0.0264227 0.0190799 0)
(-0.0299058 -0.0191615 0)
(-0.034 -0.0579659 0)
(-0.0386437 -0.0973853 0)
(-0.0443827 -0.137338 0)
(-0.0524442 -0.180208 0)
(-0.0657629 -0.235686 0)
(-0.0742243 -0.318134 0)
(-0.0812017 -0.396767 0)
(-0.0229429 -0.307165 0)
(0.00845775 0.0974629 0)
(0.0142213 0.194097 0)
(0.0141044 0.237206 0)
(0.0137101 0.253624 0)
(0.0143332 0.246544 0)
(0.0155303 0.219836 0)
(0.0163902 0.181786 0)
(0.0164442 0.140072 0)
(0.0153064 0.0991349 0)
(0.0130291 0.0602135 0)
(0.00986127 0.0226231 0)
(0.00575332 -0.0147466 0)
(0.00056225 -0.0526818 0)
(-0.00556266 -0.0912795 0)
(-0.0130298 -0.130169 0)
(-0.0219768 -0.170348 0)
(-0.037718 -0.22073 0)
(-0.0487307 -0.304494 0)
(-0.067905 -0.408511 0)
(-0.0144594 -0.360047 0)
(0.010329 0.0844841 0)
(0.0234192 0.186501 0)
(0.0310832 0.23333 0)
(0.0370131 0.250169 0)
(0.0426752 0.243329 0)
(0.0476302 0.217544 0)
(0.0510674 0.180781 0)
(0.052743 0.140376 0)
(0.0526111 0.100616 0)
(0.0508813 0.0628113 0)
(0.0477712 0.0264532 0)
(0.0431634 -0.00951572 0)
(0.0368904 -0.0459877 0)
(0.029076 -0.0831185 0)
(0.0189222 -0.120541 0)
(0.00759731 -0.158481 0)
(-0.011817 -0.204442 0)
(-0.0242403 -0.286496 0)
(-0.0558447 -0.411018 0)
(-0.00613777 -0.401895 0)
(0.00987756 0.0672337 0)
(0.0290299 0.170692 0)
(0.0443564 0.222239 0)
(0.0568995 0.241335 0)
(0.0681938 0.236407 0)
(0.0778815 0.213045 0)
(0.0851031 0.178752 0)
(0.089558 0.140412 0)
(0.0913226 0.102253 0)
(0.090697 0.0658201 0)
(0.0880111 0.0309756 0)
(0.082962 -0.0032982 0)
(0.0754479 -0.037536 0)
(0.0657566 -0.0723136 0)
(0.0525061 -0.107436 0)
(0.0375737 -0.142783 0)
(0.0131324 -0.18427 0)
(7.97588e-05 -0.263257 0)
(-0.0447979 -0.406719 0)
(0.00276545 -0.436273 0)
(0.00692938 0.0493967 0)
(0.0293646 0.148969 0)
(0.051114 0.203649 0)
(0.0699938 0.224568 0)
(0.0874711 0.22171 0)
(0.103167 0.201552 0)
(0.115838 0.170957 0)
(0.124803 0.136067 0)
(0.129975 0.100871 0)
(0.131596 0.0670448 0)
(0.129931 0.0348402 0)
(0.125007 0.00343219 0)
(0.116376 -0.0274605 0)
(0.104644 -0.058696 0)
(0.0875513 -0.0903172 0)
(0.0683619 -0.122934 0)
(0.0382978 -0.160855 0)
(0.0238599 -0.237159 0)
(-0.0344401 -0.398967 0)
(0.0134748 -0.464432 0)
(0.00238691 0.0346273 0)
(0.0236408 0.123901 0)
(0.0509594 0.179955 0)
(0.0766933 0.202954 0)
(0.101361 0.202643 0)
(0.124246 0.186242 0)
(0.143701 0.160185 0)
(0.158511 0.129754 0)
(0.168257 0.0985621 0)
(0.173147 0.0682976 0)
(0.173122 0.0395577 0)
(0.168893 0.0119366 0)
(0.159057 -0.0149085 0)
(0.145323 -0.0417113 0)
(0.12402 -0.0687524 0)
(0.100479 -0.0975533 0)
(0.0646237 -0.132709 0)
(0.0470072 -0.207457 0)
(-0.0227049 -0.387084 0)
(0.0285327 -0.485559 0)
(-0.00342602 0.0286152 0)
(0.0100718 0.101502 0)
(0.0371123 0.148699 0)
(0.0689793 0.169466 0)
(0.101876 0.170686 0)
(0.133598 0.158395 0)
(0.161598 0.13796 0)
(0.184145 0.113556 0)
(0.200195 0.088269 0)
(0.21012 0.0636278 0)
(0.213045 0.040378 0)
(0.210791 0.0184019 0)
(0.200526 -0.00267534 0)
(0.185894 -0.0233111 0)
(0.161078 -0.0439763 0)
(0.134459 -0.0677379 0)
(0.0929267 -0.101689 0)
(0.0698756 -0.180012 0)
(-0.00436792 -0.370053 0)
(0.0521611 -0.491641 0)
(-0.0140106 0.0185189 0)
(-0.00751581 0.0881765 0)
(0.0192191 0.124195 0)
(0.0564538 0.137321 0)
(0.0976097 0.136912 0)
(0.137995 0.12773 0)
(0.17425 0.113072 0)
(0.204097 0.0952935 0)
(0.225993 0.0768208 0)
(0.241088 0.0586719 0)
(0.247123 0.0417998 0)
(0.248038 0.0261063 0)
(0.238699 0.0117436 0)
(0.226882 -0.00204697 0)
(0.201882 -0.0160865 0)
(0.177898 -0.0350226 0)
(0.13355 -0.0678011 0)
(0.107838 -0.146 0)
(0.0374715 -0.326119 0)
(0.0923672 -0.455871 0)
(-0.106019 0.0824191 0)
(-0.0777591 0.0689919 0)
(-0.048568 0.0733698 0)
(0.00378018 0.077889 0)
(0.0572955 0.0782225 0)
(0.110028 0.0739582 0)
(0.157197 0.066623 0)
(0.19956 0.0572184 0)
(0.231672 0.0475426 0)
(0.259824 0.0378863 0)
(0.275552 0.0292195 0)
(0.290707 0.0212337 0)
(0.29106 0.0144767 0)
(0.295171 0.00809366 0)
(0.278869 0.00112592 0)
(0.271654 -0.0100116 0)
(0.232344 -0.0355668 0)
(0.218141 -0.0954186 0)
(0.150208 -0.229723 0)
(0.170672 -0.341456 0)
(0.129969 0.103745 0)
(0.158321 0.0752288 0)
(0.212167 0.0532288 0)
(0.270675 0.0416237 0)
(0.32325 0.0359137 0)
(0.375692 0.031949 0)
(0.420286 0.0289167 0)
(0.465605 0.0255811 0)
(0.4987 0.0229031 0)
(0.533949 0.0197107 0)
(0.553388 0.0175479 0)
(0.579198 0.0146101 0)
(0.585335 0.0131654 0)
(0.603675 0.0103465 0)
(0.595096 0.0093842 0)
(0.603598 0.0050004 0)
(0.567791 8.97049e-05 0)
(0.547614 -0.0183156 0)
(0.435692 -0.0504144 0)
(0.336754 -0.101386 0)
)
;

boundaryField
{
    movingWall
    {
        type            fixedValue;
        value           uniform (1 0 0);
    }
    fixedWalls
    {
        type            noSlip;
    }
    frontAndBack
    {
        type            empty;
    }
}


// ************************************************************************* //
