/*--------------------------------*- C++ -*----------------------------------*\
| =========                 |                                                 |
| \\      /  F ield         | OpenFOAM: The Open Source CFD Toolbox           |
|  \\    /   O peration     | Version:  2212                                  |
|   \\  /    A nd           | Website:  www.openfoam.com                      |
|    \\/     M anipulation  |                                                 |
\*---------------------------------------------------------------------------*/
FoamFile
{
    version     2.0;
    format      ascii;
    arch        "LSB;label=32;scalar=64";
    class       surfaceScalarField;
    location    "2.5";
    object      phi;
}
// * * * * * * * * * * * * * * * * * * * * * * * * * * * * * * * * * * * * * //

dimensions      [0 3 -1 0 0 0 0];

oriented        oriented;

internalField   nonuniform List<scalar> 
760
(
1.31004e-07
-1.31001e-07
2.40862e-07
-1.09858e-07
2.45873e-07
-5.01043e-09
1.24057e-07
1.21816e-07
-1.59891e-07
2.83947e-07
-6.62037e-07
5.02147e-07
-1.41219e-06
7.5015e-07
-2.33982e-06
9.27636e-07
-3.26713e-06
9.27304e-07
-3.97777e-06
7.10643e-07
-4.30592e-06
3.28151e-07
-4.1564e-06
-1.49519e-07
-3.46372e-06
-6.92678e-07
-2.332e-06
-1.13172e-06
-9.76951e-07
-1.35505e-06
2.4712e-07
-1.22407e-06
9.73736e-07
-7.26616e-07
9.51642e-07
2.20943e-08
4.29703e-07
5.21938e-07
4.29703e-07
8.4799e-08
-2.158e-07
5.19884e-09
-3.02576e-08
-3.49664e-07
3.49853e-07
-1.06895e-06
8.411e-07
-2.20006e-06
1.41506e-06
-3.68415e-06
1.98624e-06
-5.30866e-06
2.37466e-06
-6.78622e-06
2.40519e-06
-7.8909e-06
2.03199e-06
-8.50264e-06
1.32238e-06
-8.56974e-06
3.95246e-07
-8.06297e-06
-6.56289e-07
-7.01277e-06
-1.74287e-06
-5.44938e-06
-2.69511e-06
-3.50981e-06
-3.29463e-06
-1.48515e-06
-3.24874e-06
1.1516e-07
-2.32692e-06
7.88433e-07
-6.51178e-07
4.92917e-07
8.17454e-07
9.22621e-07
-1.50498e-07
-6.53025e-08
-6.39184e-07
4.58429e-07
-1.55526e-06
1.26593e-06
-2.94464e-06
2.23048e-06
-4.71757e-06
3.18798e-06
-6.61989e-06
3.88856e-06
-8.35521e-06
4.10998e-06
-9.73308e-06
3.78306e-06
-1.06857e-05
2.98463e-06
-1.11981e-05
1.8348e-06
-1.12265e-05
4.23584e-07
-1.08045e-05
-1.07823e-06
-9.92306e-06
-2.62436e-06
-8.53049e-06
-4.08767e-06
-6.60658e-06
-5.21854e-06
-4.24132e-06
-5.614e-06
-1.81793e-06
-4.75031e-06
-9.6889e-08
-2.37222e-06
2.83271e-07
4.37294e-07
1.20589e-06
-4.7332e-07
4.08017e-07
-1.45862e-06
1.44373e-06
-2.89305e-06
2.70037e-06
-4.71292e-06
4.05035e-06
-6.70208e-06
5.17714e-06
-8.57628e-06
5.76276e-06
-1.01257e-05
5.65936e-06
-1.12845e-05
4.94194e-06
-1.20702e-05
3.77033e-06
-1.25134e-05
2.27793e-06
-1.26025e-05
5.12769e-07
-1.2386e-05
-1.29479e-06
-1.18358e-05
-3.17457e-06
-1.08525e-05
-5.07093e-06
-9.30904e-06
-6.76201e-06
-7.08458e-06
-7.83846e-06
-4.22466e-06
-7.61023e-06
-1.32876e-06
-5.26812e-06
1.14067e-07
-1.00553e-06
1.31996e-06
-7.89702e-07
1.19772e-06
-2.16812e-06
2.82214e-06
-3.90081e-06
4.43305e-06
-5.83149e-06
5.98104e-06
-7.70769e-06
7.05333e-06
-9.30421e-06
7.35928e-06
-1.05224e-05
6.87758e-06
-1.13713e-05
5.79077e-06
-1.19051e-05
4.30412e-06
-1.21935e-05
2.56635e-06
-1.23201e-05
6.39349e-07
-1.22883e-05
-1.32657e-06
-1.20867e-05
-3.3761e-06
-1.16362e-05
-5.5215e-06
-1.07535e-05
-7.64471e-06
-9.15716e-06
-9.43478e-06
-6.56549e-06
-1.02019e-05
-3.09177e-06
-8.74183e-06
-2.55048e-07
-3.84226e-06
1.06491e-06
-9.84257e-07
2.18198e-06
-2.54697e-06
4.38485e-06
-4.31827e-06
6.20436e-06
-6.09697e-06
7.75973e-06
-7.66664e-06
8.62301e-06
-8.8811e-06
8.57374e-06
-9.71289e-06
7.70936e-06
-1.02134e-05
6.29124e-06
-1.04668e-05
4.55758e-06
-1.05723e-05
2.67186e-06
-1.06504e-05
7.17381e-07
-1.07079e-05
-1.269e-06
-1.07544e-05
-3.32964e-06
-1.07615e-05
-5.51435e-06
-1.05738e-05
-7.83245e-06
-9.86334e-06
-1.01452e-05
-8.14726e-06
-1.1918e-05
-5.03753e-06
-1.18516e-05
-1.11071e-06
-7.76908e-06
-4.57939e-08
-1.00232e-06
3.1843e-06
-2.52597e-06
5.9085e-06
-4.13002e-06
7.80841e-06
-5.61496e-06
9.24467e-06
-6.82052e-06
9.82857e-06
-7.66514e-06
9.41837e-06
-8.16542e-06
8.20964e-06
-8.39691e-06
6.52273e-06
-8.45955e-06
4.62022e-06
-8.45352e-06
2.66583e-06
-8.46886e-06
7.32716e-07
-8.53607e-06
-1.20179e-06
-8.67691e-06
-3.1888e-06
-8.90474e-06
-5.28653e-06
-9.15817e-06
-7.57902e-06
-9.19562e-06
-1.01078e-05
-8.49421e-06
-1.26194e-05
-6.32039e-06
-1.40254e-05
-2.32182e-06
-1.17677e-05
-2.36761e-06
-8.44416e-07
4.02871e-06
-2.15499e-06
7.21907e-06
-3.47406e-06
9.12748e-06
-4.62172e-06
1.03923e-05
-5.49081e-06
1.06977e-05
-6.0475e-06
9.97505e-06
-6.33243e-06
8.49457e-06
-6.42799e-06
6.61829e-06
-6.42926e-06
4.62149e-06
-6.41504e-06
2.65162e-06
-6.42941e-06
7.47079e-07
-6.49441e-06
-1.13679e-06
-6.63726e-06
-3.04594e-06
-6.8948e-06
-5.02899e-06
-7.28463e-06
-7.18919e-06
-7.70484e-06
-9.68757e-06
-7.72768e-06
-1.25965e-05
-6.53552e-06
-1.52175e-05
-3.44326e-06
-1.48599e-05
-5.81087e-06
-5.63231e-07
4.59194e-06
-1.55232e-06
8.20816e-06
-2.53829e-06
1.01135e-05
-3.35627e-06
1.12103e-05
-3.9442e-06
1.12856e-05
-4.30001e-06
1.03309e-05
-4.47162e-06
8.66618e-06
-4.53173e-06
6.6784e-06
-4.55328e-06
4.64304e-06
-4.58421e-06
2.68255e-06
-4.63837e-06
8.01243e-07
-4.72391e-06
-1.05125e-06
-4.85625e-06
-2.91361e-06
-5.07246e-06
-4.81277e-06
-5.43683e-06
-6.82483e-06
-5.95997e-06
-9.16443e-06
-6.39908e-06
-1.21574e-05
-5.99344e-06
-1.56232e-05
-3.81868e-06
-1.70347e-05
-9.62955e-06
-2.08523e-07
4.80047e-06
-8.23229e-07
8.82287e-06
-1.46409e-06
1.07543e-05
-1.97868e-06
1.17249e-05
-2.33412e-06
1.1641e-05
-2.54798e-06
1.05447e-05
-2.66353e-06
8.78172e-06
-2.73136e-06
6.74624e-06
-2.79566e-06
4.70734e-06
-2.87989e-06
2.76678e-06
-2.98644e-06
9.07789e-07
-3.11423e-06
-9.23457e-07
-3.26642e-06
-2.76142e-06
-3.46332e-06
-4.61587e-06
-3.77027e-06
-6.51788e-06
-4.27776e-06
-8.65694e-06
-4.91389e-06
-1.15213e-05
-5.04345e-06
-1.54936e-05
-3.49973e-06
-1.85784e-05
-1.31293e-05
1.48509e-07
4.65196e-06
-6.38225e-08
9.0352e-06
-3.78552e-07
1.1069e-05
-6.19339e-07
1.19657e-05
-7.68438e-07
1.17901e-05
-8.54308e-07
1.06306e-05
-9.15639e-07
8.84305e-06
-9.84699e-07
6.8153e-06
-1.07689e-06
4.79953e-06
-1.1979e-06
2.88779e-06
-1.34714e-06
1.05702e-06
-1.52492e-06
-7.4568e-07
-1.73068e-06
-2.55566e-06
-1.96764e-06
-4.37891e-06
-2.27618e-06
-6.20934e-06
-2.76687e-06
-8.16624e-06
-3.49588e-06
-1.07923e-05
-3.98877e-06
-1.50007e-05
-2.99918e-06
-1.9568e-05
-1.61285e-05
4.48422e-07
4.20353e-06
6.32571e-07
8.85105e-06
6.77822e-07
1.10238e-05
7.21602e-07
1.19219e-05
7.78324e-07
1.17334e-05
8.18056e-07
1.05909e-05
8.16753e-07
8.84435e-06
7.65841e-07
6.86621e-06
6.68349e-07
4.89702e-06
5.31108e-07
3.02503e-06
3.53232e-07
1.2349e-06
1.30409e-07
-5.22857e-07
-1.40018e-07
-2.28523e-06
-4.66699e-07
-4.05223e-06
-8.60598e-07
-5.81544e-06
-1.38481e-06
-7.64203e-06
-2.19284e-06
-9.98427e-06
-2.96254e-06
-1.4231e-05
-2.46573e-06
-2.00648e-05
-1.85942e-05
6.69429e-07
3.53411e-06
1.2214e-06
8.29908e-06
1.59844e-06
1.06468e-05
1.93059e-06
1.15897e-05
2.22016e-06
1.14439e-05
2.42517e-06
1.03858e-05
2.52776e-06
8.74177e-06
2.5365e-06
6.85747e-06
2.46914e-06
4.96439e-06
2.33819e-06
3.15597e-06
2.14202e-06
1.43107e-06
1.86791e-06
-2.48747e-07
1.51629e-06
-1.93361e-06
1.08255e-06
-3.61849e-06
5.58952e-07
-5.29184e-06
-1.17917e-07
-6.96516e-06
-1.00335e-06
-9.09884e-06
-1.97672e-06
-1.32576e-05
-1.95252e-06
-2.0089e-05
-2.05467e-05
7.62754e-07
2.77135e-06
1.62129e-06
7.44055e-06
2.32281e-06
9.94522e-06
2.95393e-06
1.09586e-05
3.51265e-06
1.08851e-05
3.94356e-06
9.95494e-06
4.21825e-06
8.46707e-06
4.34519e-06
6.73053e-06
4.34884e-06
4.96074e-06
4.24879e-06
3.25602e-06
4.04727e-06
1.6326e-06
3.72479e-06
7.3735e-08
3.28644e-06
-1.49526e-06
2.71868e-06
-3.05074e-06
2.0212e-06
-4.59436e-06
1.20527e-06
-6.14922e-06
1.65386e-07
-8.05896e-06
-1.0531e-06
-1.20392e-05
-1.47241e-06
-1.96697e-05
-2.20191e-05
6.98171e-07
2.07318e-06
1.73025e-06
6.40846e-06
2.70421e-06
8.97127e-06
3.64633e-06
1.00165e-05
4.51975e-06
1.00117e-05
5.24753e-06
9.22715e-06
5.77707e-06
7.93754e-06
6.10244e-06
6.40516e-06
6.24309e-06
4.82009e-06
6.22021e-06
3.27889e-06
6.0381e-06
1.81471e-06
5.69082e-06
4.21013e-07
5.15807e-06
-9.62514e-07
4.44463e-06
-2.3373e-06
3.54663e-06
-3.69635e-06
2.4955e-06
-5.0981e-06
1.23641e-06
-6.79986e-06
-2.47281e-07
-1.05555e-05
-9.82201e-07
-1.89348e-05
-2.30013e-05
4.91608e-07
1.58157e-06
1.53379e-06
5.36629e-06
2.76581e-06
7.73925e-06
4.0445e-06
8.73782e-06
5.27494e-06
8.78127e-06
6.35021e-06
8.15188e-06
7.19133e-06
7.09642e-06
7.7737e-06
5.82279e-06
8.10452e-06
4.48926e-06
8.20093e-06
3.18249e-06
8.07148e-06
1.94415e-06
7.71795e-06
7.74547e-07
7.09972e-06
-3.44284e-07
6.23882e-06
-1.4764e-06
5.12733e-06
-2.58486e-06
3.81516e-06
-3.78593e-06
2.35289e-06
-5.33759e-06
7.83638e-07
-8.98621e-06
-2.27517e-07
-1.79236e-05
-2.32288e-05
1.00232e-07
1.48134e-06
8.46801e-07
4.61972e-06
2.19002e-06
6.39603e-06
3.79838e-06
7.12945e-06
5.44286e-06
7.13679e-06
6.9364e-06
6.65835e-06
8.16411e-06
5.8687e-06
9.08404e-06
4.90286e-06
9.6831e-06
3.8902e-06
9.97166e-06
2.89393e-06
9.95377e-06
1.96204e-06
9.63875e-06
1.08957e-06
9.00084e-06
2.93625e-07
8.04049e-06
-5.16054e-07
6.77502e-06
-1.31939e-06
5.25628e-06
-2.26719e-06
3.63977e-06
-3.72108e-06
2.07157e-06
-7.41802e-06
5.86316e-07
-1.64384e-05
-2.26425e-05
-4.86175e-07
1.96752e-06
1.09167e-07
4.02438e-06
1.48356e-06
5.02164e-06
3.37182e-06
5.24119e-06
5.39041e-06
5.1182e-06
7.26131e-06
4.78745e-06
8.83778e-06
4.29223e-06
1.00677e-05
3.67296e-06
1.09228e-05
3.03506e-06
1.14171e-05
2.39968e-06
1.15533e-05
1.82583e-06
1.13545e-05
1.28836e-06
1.08343e-05
8.1378e-07
9.99026e-06
3.28035e-07
8.83594e-06
-1.65074e-07
7.42815e-06
-8.59398e-07
5.95942e-06
-2.25236e-06
4.28483e-06
-5.74343e-06
1.98319e-06
-1.41367e-05
-2.06593e-05
-4.14841e-06
6.11592e-06
-3.65252e-06
3.52849e-06
-1.3888e-06
2.75792e-06
1.2464e-06
2.60599e-06
3.83465e-06
2.52995e-06
6.24907e-06
2.37303e-06
8.3829e-06
2.1584e-06
1.01724e-05
1.88349e-06
1.15922e-05
1.6152e-06
1.26626e-05
1.32936e-06
1.33968e-05
1.09155e-06
1.38378e-05
8.47421e-07
1.39801e-05
6.71414e-07
1.3845e-05
4.63215e-07
1.3406e-05
2.73903e-07
1.26785e-05
-1.3196e-07
1.1681e-05
-1.25477e-06
1.00037e-05
-4.06619e-06
5.59276e-06
-9.72576e-06
-1.50666e-05
6.11593e-06
9.64441e-06
1.24023e-05
1.50083e-05
1.75383e-05
1.99113e-05
2.20697e-05
2.39532e-05
2.55684e-05
2.68978e-05
2.79893e-05
2.88367e-05
2.95081e-05
2.99714e-05
3.02453e-05
3.01133e-05
2.88585e-05
2.47923e-05
1.50666e-05
)
;

boundaryField
{
    movingWall
    {
        type            calculated;
        value           uniform 0;
    }
    fixedWalls
    {
        type            calculated;
        value           uniform 0;
    }
    frontAndBack
    {
        type            empty;
        value           nonuniform List<scalar> 0();
    }
}


// ************************************************************************* //
