/*--------------------------------*- C++ -*----------------------------------*\
| =========                 |                                                 |
| \\      /  F ield         | OpenFOAM: The Open Source CFD Toolbox           |
|  \\    /   O peration     | Version:  2212                                  |
|   \\  /    A nd           | Website:  www.openfoam.com                      |
|    \\/     M anipulation  |                                                 |
\*---------------------------------------------------------------------------*/
FoamFile
{
    version     2.0;
    format      ascii;
    arch        "LSB;label=32;scalar=64";
    class       volScalarField;
    location    "21.4";
    object      T;
}
// * * * * * * * * * * * * * * * * * * * * * * * * * * * * * * * * * * * * * //

dimensions      [0 0 0 1 0 0 0];

internalField   nonuniform List<scalar> 
400
(
0.988746
0.98898
0.989455
0.990159
0.99098
0.991733
0.992276
0.992594
0.992768
0.992887
0.992995
0.993107
0.993227
0.993352
0.993462
0.993526
0.993495
0.993313
0.993013
0.992766
0.989045
0.989332
0.989907
0.990732
0.991607
0.992255
0.992575
0.992687
0.992725
0.992754
0.992814
0.992929
0.993107
0.993338
0.993577
0.993752
0.993755
0.993504
0.993108
0.992823
0.98951
0.989897
0.990614
0.991479
0.992161
0.992451
0.992438
0.992294
0.992115
0.991979
0.991956
0.992092
0.99239
0.992841
0.993363
0.993838
0.994068
0.993855
0.993282
0.992927
0.989967
0.990456
0.991239
0.99194
0.992236
0.992096
0.991702
0.991201
0.990706
0.990341
0.990198
0.990356
0.990795
0.991526
0.992447
0.993417
0.994171
0.994362
0.99373
0.993171
0.990317
0.990865
0.991585
0.991971
0.991808
0.991202
0.990354
0.989422
0.988569
0.987947
0.987667
0.987819
0.988379
0.989367
0.990693
0.992214
0.993664
0.994632
0.994531
0.993623
0.990547
0.991091
0.991643
0.991642
0.991
0.989911
0.988591
0.987236
0.986054
0.985206
0.984804
0.98492
0.985553
0.986714
0.988344
0.990319
0.992407
0.99422
0.995125
0.994282
0.990672
0.991155
0.99148
0.991085
0.989995
0.988459
0.986717
0.985016
0.983588
0.982589
0.982113
0.982197
0.982854
0.984087
0.985875
0.988141
0.990696
0.993182
0.995029
0.995229
0.990723
0.991118
0.991213
0.990472
0.988997
0.987079
0.984999
0.983047
0.981463
0.980388
0.979883
0.979955
0.980605
0.981833
0.983642
0.986026
0.988881
0.991886
0.994447
0.995735
0.990722
0.991023
0.990917
0.9899
0.988126
0.985923
0.983607
0.981493
0.979821
0.978709
0.978193
0.978259
0.978896
0.980088
0.98184
0.984192
0.987172
0.990567
0.993702
0.995503
0.99069
0.990914
0.990671
0.989481
0.987514
0.985122
0.98265
0.980433
0.978702
0.97756
0.977023
0.977074
0.977695
0.978858
0.980538
0.982777
0.985717
0.989347
0.993028
0.995327
0.990638
0.990808
0.990489
0.989216
0.987157
0.984678
0.982142
0.97988
0.978115
0.976938
0.976362
0.976375
0.976965
0.978094
0.97971
0.981812
0.984596
0.988291
0.992401
0.995215
0.99057
0.990718
0.990397
0.989154
0.98712
0.98466
0.982136
0.979873
0.978086
0.976867
0.976236
0.97619
0.976718
0.977787
0.979326
0.98128
0.983835
0.987455
0.991899
0.995154
0.990488
0.990636
0.990362
0.98923
0.987321
0.984977
0.982554
0.980357
0.978594
0.977359
0.976682
0.976564
0.977001
0.977963
0.979378
0.981162
0.983436
0.986844
0.991503
0.995147
0.990383
0.990557
0.990383
0.989451
0.987779
0.985663
0.983433
0.981374
0.97968
0.978454
0.977736
0.977528
0.977839
0.978638
0.979864
0.981421
0.983379
0.98649
0.991248
0.995184
0.990247
0.99046
0.990383
0.98967
0.988294
0.986492
0.984556
0.982733
0.9812
0.980051
0.979336
0.979055
0.979221
0.979812
0.980779
0.982056
0.983676
0.986387
0.991115
0.995267
0.990086
0.990347
0.990397
0.989941
0.988925
0.987519
0.985958
0.98445
0.983143
0.982123
0.981437
0.981092
0.981092
0.981433
0.982085
0.983017
0.98427
0.986499
0.991111
0.995397
0.989926
0.990183
0.990274
0.990004
0.98932
0.988334
0.987209
0.986098
0.985107
0.984305
0.983719
0.983369
0.983242
0.983353
0.983698
0.984275
0.985198
0.987003
0.991381
0.99562
0.989813
0.990126
0.990315
0.990203
0.989816
0.989219
0.98851
0.98778
0.987097
0.986512
0.986043
0.985711
0.985515
0.985466
0.985596
0.985893
0.986571
0.987958
0.991885
0.9959
0.988273
0.989779
0.989771
0.989714
0.989505
0.989228
0.988912
0.988619
0.98835
0.988152
0.988006
0.98794
0.987943
0.98801
0.988194
0.988429
0.989033
0.990085
0.993062
0.996379
0.991764
0.992759
0.993291
0.993609
0.993779
0.993884
0.993939
0.993995
0.994035
0.994097
0.994152
0.994236
0.994314
0.994421
0.994524
0.994666
0.994849
0.995235
0.996005
0.99736
)
;

boundaryField
{
    movingWall
    {
        type            fixedValue;
        value           uniform 1;
    }
    fixedWalls
    {
        type            zeroGradient;
    }
    frontAndBack
    {
        type            empty;
    }
}


// ************************************************************************* //
