/*--------------------------------*- C++ -*----------------------------------*\
| =========                 |                                                 |
| \\      /  F ield         | OpenFOAM: The Open Source CFD Toolbox           |
|  \\    /   O peration     | Version:  2212                                  |
|   \\  /    A nd           | Website:  www.openfoam.com                      |
|    \\/     M anipulation  |                                                 |
\*---------------------------------------------------------------------------*/
FoamFile
{
    version     2.0;
    format      ascii;
    arch        "LSB;label=32;scalar=64";
    class       volScalarField;
    location    "5.2";
    object      p;
}
// * * * * * * * * * * * * * * * * * * * * * * * * * * * * * * * * * * * * * //

dimensions      [0 2 -2 0 0 0 0];

internalField   nonuniform List<scalar> 
400
(
-1.02122e-07
-0.00015071
-0.000533593
-0.00106935
-0.00172839
-0.00248765
-0.00317692
-0.00358843
-0.00355592
-0.00292539
-0.00154216
0.000622034
0.00324957
0.00551539
0.00654203
0.00594249
0.00403179
0.00218468
0.00114633
0.00107625
0.000116047
-5.79154e-05
-0.000375791
-0.000762061
-0.00124102
-0.0018834
-0.00269875
-0.00353293
-0.00406716
-0.00392544
-0.00283579
-0.000817997
0.0016934
0.00396604
0.00513641
0.00476531
0.00313608
0.00141132
0.000630002
0.000719322
0.000534887
0.000264522
-7.66344e-05
-0.000557793
-0.0013432
-0.00257223
-0.00420439
-0.00596181
-0.00737477
-0.007914
-0.00723649
-0.00543838
-0.00287229
-0.000176977
0.00181231
0.00245515
0.0017441
0.000540924
-0.000356886
-0.000355677
0.00114752
0.000738153
0.000190975
-0.000772175
-0.00244189
-0.00491822
-0.0079624
-0.0110741
-0.0136459
-0.0151136
-0.0151437
-0.0137812
-0.0112421
-0.00798473
-0.00471256
-0.00217153
-0.000831753
-0.000667001
-0.00124885
-0.00187916
0.00157381
0.000966797
-2.49916e-05
-0.0019174
-0.00498571
-0.00913982
-0.0138515
-0.018396
-0.0221147
-0.0245403
-0.0254128
-0.0246121
-0.0222638
-0.0186579
-0.0142332
-0.00959681
-0.00554326
-0.0029071
-0.00215484
-0.00397606
0.00128048
0.000436127
-0.00119747
-0.00428835
-0.00896511
-0.0148113
-0.0209721
-0.0265852
-0.0310368
-0.0340078
-0.0353684
-0.0350177
-0.0330395
-0.0295817
-0.0247856
-0.0188706
-0.0124368
-0.00689758
-0.00435899
-0.0064774
-6.04073e-05
-0.0011541
-0.00349252
-0.00776579
-0.0138679
-0.0210108
-0.0280929
-0.0342272
-0.0389169
-0.0419985
-0.0434771
-0.0433723
-0.0417515
-0.0386838
-0.0341477
-0.0280275
-0.0204419
-0.0126346
-0.0078054
-0.00770566
-0.00245634
-0.0037411
-0.00667956
-0.0118631
-0.0189476
-0.0268427
-0.0343175
-0.0405478
-0.0451811
-0.0481794
-0.0496288
-0.0496233
-0.0482418
-0.045532
-0.0414463
-0.0357535
-0.028194
-0.019278
-0.0117618
-0.0079407
-0.00553277
-0.00690247
-0.0102295
-0.015951
-0.0235389
-0.0317167
-0.0392244
-0.0453344
-0.0498137
-0.0527
-0.0541115
-0.0541534
-0.0529002
-0.0504104
-0.0466947
-0.0415963
-0.034701
-0.0258262
-0.0166285
-0.0099429
-0.00871677
-0.0100605
-0.0135486
-0.0194527
-0.0271441
-0.0352866
-0.0426524
-0.0485929
-0.0529421
-0.0557616
-0.0571648
-0.0572366
-0.0560403
-0.0536479
-0.0501414
-0.0455093
-0.0394381
-0.031377
-0.0222164
-0.0142642
-0.011477
-0.0127222
-0.0161587
-0.0219518
-0.0294496
-0.0373702
-0.0445456
-0.050358
-0.0546478
-0.0574581
-0.0588779
-0.0589693
-0.0577829
-0.0553961
-0.0519513
-0.0475799
-0.0422183
-0.0352205
-0.0270762
-0.0190825
-0.0135165
-0.0145771
-0.0177897
-0.023208
-0.0302689
-0.0378394
-0.0448312
-0.0506016
-0.0549264
-0.0577959
-0.0592605
-0.0593627
-0.0581442
-0.0556836
-0.0521755
-0.0478638
-0.0429947
-0.0368952
-0.0299075
-0.0223124
-0.0148028
-0.0155259
-0.0182872
-0.0231071
-0.0295387
-0.036665
-0.0434891
-0.0493043
-0.0537653
-0.0567702
-0.0583166
-0.058424
-0.057129
-0.0545326
-0.0508545
-0.0464009
-0.0417737
-0.0361587
-0.0301159
-0.0228012
-0.0154344
-0.0156841
-0.017721
-0.0216569
-0.0272543
-0.0338417
-0.0405022
-0.0464346
-0.0511352
-0.054371
-0.0560634
-0.0562048
-0.0548084
-0.0520063
-0.0480611
-0.0433653
-0.038579
-0.0330382
-0.0280178
-0.0202138
-0.0155437
-0.0152668
-0.016295
-0.01902
-0.0235476
-0.0294806
-0.0359642
-0.042074
-0.0471165
-0.0506907
-0.0526115
-0.0528169
-0.0513489
-0.0482964
-0.0439946
-0.0388912
-0.0336843
-0.0280213
-0.0241938
-0.014366
-0.0152504
-0.0145262
-0.0142333
-0.0153847
-0.0186163
-0.0237862
-0.0300744
-0.0364066
-0.0418826
-0.0459097
-0.0481786
-0.0485578
-0.0470698
-0.0437853
-0.0390771
-0.0334177
-0.0276046
-0.021638
-0.0180836
-0.0038697
-0.0146415
-0.013602
-0.0116958
-0.0110687
-0.0129253
-0.0173204
-0.0234308
-0.0300189
-0.035996
-0.0405784
-0.043326
-0.0440102
-0.0426233
-0.0391972
-0.0340704
-0.0276469
-0.0207066
-0.0133505
-0.00688837
0.0159625
-0.0145719
-0.0126497
-0.00865333
-0.00624974
-0.00691916
-0.0107307
-0.0167641
-0.0236403
-0.0301541
-0.0353587
-0.0387026
-0.0398345
-0.0387003
-0.0353144
-0.0298246
-0.0222785
-0.0129487
-0.000821488
0.0165354
0.0569314
-0.0117926
-0.0118335
-0.00574886
-0.00181411
-0.00180288
-0.00542276
-0.0115573
-0.0187525
-0.0257681
-0.0315432
-0.0354957
-0.0371922
-0.036534
-0.0332455
-0.0271773
-0.0175695
-0.00325233
0.0203271
0.0605241
0.129675
-0.029511
-0.0106389
-0.00064207
0.00303078
0.00239811
-0.00158847
-0.00799618
-0.0155061
-0.0228837
-0.0290434
-0.0333776
-0.0354286
-0.0350584
-0.0318516
-0.0251803
-0.0128818
0.00932669
0.0510217
0.122717
0.225946
)
;

boundaryField
{
    movingWall
    {
        type            zeroGradient;
    }
    fixedWalls
    {
        type            zeroGradient;
    }
    frontAndBack
    {
        type            empty;
    }
}


// ************************************************************************* //
