/*--------------------------------*- C++ -*----------------------------------*\
| =========                 |                                                 |
| \\      /  F ield         | OpenFOAM: The Open Source CFD Toolbox           |
|  \\    /   O peration     | Version:  2212                                  |
|   \\  /    A nd           | Website:  www.openfoam.com                      |
|    \\/     M anipulation  |                                                 |
\*---------------------------------------------------------------------------*/
FoamFile
{
    version     2.0;
    format      ascii;
    arch        "LSB;label=32;scalar=64";
    class       volScalarField;
    location    "5.2";
    object      T;
}
// * * * * * * * * * * * * * * * * * * * * * * * * * * * * * * * * * * * * * //

dimensions      [0 0 0 1 0 0 0];

internalField   nonuniform List<scalar> 
400
(
0.614317
0.627083
0.652708
0.690024
0.732396
0.769428
0.794141
0.806831
0.812514
0.815792
0.818384
0.820673
0.822745
0.824392
0.825073
0.823802
0.818957
0.808303
0.792257
0.779017
0.631489
0.646721
0.677063
0.719802
0.7636
0.794235
0.808293
0.813398
0.815841
0.817603
0.81959
0.822282
0.825778
0.829692
0.832806
0.833142
0.827716
0.813993
0.795012
0.780744
0.658034
0.677917
0.714762
0.758607
0.792603
0.807981
0.811292
0.810703
0.808774
0.807208
0.807507
0.810695
0.81683
0.82559
0.834985
0.841822
0.840671
0.825748
0.80011
0.783846
0.684007
0.708781
0.748859
0.785546
0.804333
0.806195
0.800631
0.792226
0.783148
0.776324
0.773734
0.777174
0.786328
0.801445
0.820337
0.839436
0.851686
0.846783
0.81651
0.792603
0.704469
0.732595
0.771305
0.796612
0.800738
0.790944
0.775406
0.757252
0.74024
0.727752
0.722002
0.724971
0.736261
0.756539
0.784243
0.81645
0.846778
0.863715
0.848382
0.810357
0.718947
0.748207
0.782312
0.79548
0.786719
0.766156
0.740451
0.713399
0.689913
0.673086
0.664981
0.666951
0.679041
0.70181
0.734659
0.775734
0.820511
0.859815
0.875048
0.837293
0.728506
0.756915
0.784901
0.787033
0.767536
0.737626
0.703406
0.669945
0.642412
0.623319
0.614165
0.615415
0.627378
0.650485
0.684984
0.730268
0.783398
0.837362
0.878418
0.874944
0.734405
0.760738
0.782748
0.776033
0.748077
0.710643
0.670156
0.632711
0.603145
0.583315
0.573959
0.574875
0.586181
0.608215
0.641793
0.687821
0.745449
0.808976
0.865912
0.89561
0.73772
0.761413
0.778369
0.765234
0.731151
0.688376
0.643901
0.604312
0.573939
0.554073
0.544807
0.545603
0.556282
0.576886
0.60813
0.651926
0.710394
0.78073
0.849008
0.890111
0.739192
0.760238
0.773696
0.756979
0.719275
0.673181
0.626344
0.585572
0.554778
0.534834
0.525435
0.525979
0.536176
0.555785
0.584894
0.625223
0.681222
0.754987
0.834458
0.886454
0.739311
0.757979
0.769441
0.751571
0.712461
0.664987
0.617336
0.576202
0.545158
0.524873
0.514933
0.514843
0.524374
0.543165
0.570664
0.607558
0.659142
0.732747
0.820531
0.883985
0.73839
0.755073
0.765979
0.749557
0.711613
0.66475
0.617551
0.576541
0.545176
0.524233
0.513411
0.51233
0.520817
0.538515
0.564504
0.598241
0.644447
0.715398
0.809698
0.882764
0.736483
0.751637
0.762969
0.749891
0.715277
0.670884
0.625535
0.58557
0.554417
0.53306
0.52139
0.519109
0.526116
0.542056
0.565942
0.596478
0.636767
0.702484
0.800876
0.882681
0.73348
0.747577
0.759974
0.751983
0.723238
0.683665
0.641917
0.604137
0.573812
0.552265
0.539714
0.535888
0.540844
0.554159
0.574928
0.60152
0.635685
0.694891
0.795241
0.88363
0.729228
0.742887
0.756227
0.75349
0.731885
0.69901
0.662809
0.629047
0.601117
0.580522
0.567764
0.562597
0.56515
0.575016
0.59143
0.61321
0.64116
0.692184
0.792048
0.885554
0.72398
0.737451
0.751772
0.754424
0.741287
0.717184
0.688615
0.660669
0.636549
0.617858
0.605294
0.598834
0.598454
0.603981
0.614928
0.630668
0.652162
0.6938
0.791762
0.888583
0.719096
0.732053
0.745703
0.751341
0.745261
0.730197
0.710643
0.690484
0.672261
0.65741
0.646506
0.639789
0.637055
0.638422
0.643946
0.653431
0.669415
0.703338
0.797303
0.893664
0.715557
0.728202
0.74228
0.749878
0.74952
0.742631
0.731819
0.719474
0.707357
0.696648
0.687878
0.681451
0.677463
0.676028
0.677972
0.68286
0.695466
0.722577
0.808243
0.900136
0.679437
0.725731
0.731558
0.736532
0.73704
0.735118
0.731577
0.727845
0.724138
0.721512
0.719711
0.719306
0.720182
0.722182
0.726549
0.731788
0.74496
0.767743
0.83431
0.911196
0.773682
0.802026
0.817976
0.8284
0.834965
0.839723
0.843025
0.846106
0.848569
0.851391
0.853849
0.856868
0.859561
0.862881
0.865899
0.869889
0.874484
0.88386
0.901635
0.93417
)
;

boundaryField
{
    movingWall
    {
        type            fixedValue;
        value           uniform 1;
    }
    fixedWalls
    {
        type            zeroGradient;
    }
    frontAndBack
    {
        type            empty;
    }
}


// ************************************************************************* //
