/*--------------------------------*- C++ -*----------------------------------*\
| =========                 |                                                 |
| \\      /  F ield         | OpenFOAM: The Open Source CFD Toolbox           |
|  \\    /   O peration     | Version:  2212                                  |
|   \\  /    A nd           | Website:  www.openfoam.com                      |
|    \\/     M anipulation  |                                                 |
\*---------------------------------------------------------------------------*/
FoamFile
{
    version     2.0;
    format      ascii;
    arch        "LSB;label=32;scalar=64";
    class       volVectorField;
    location    "5.2";
    object      U;
}
// * * * * * * * * * * * * * * * * * * * * * * * * * * * * * * * * * * * * * //

dimensions      [0 1 -1 0 0 0 0];

internalField   nonuniform List<vector> 
400
(
(0.00167514 -0.00167774 0)
(0.00481672 -0.00188477 0)
(0.00655637 -0.0011965 0)
(0.00563616 -0.000572303 0)
(0.00153724 0.000186535 0)
(-0.0068482 0.00173886 0)
(-0.0205945 0.00477479 0)
(-0.0394795 0.00871038 0)
(-0.0607016 0.011264 0)
(-0.0790034 0.0104962 0)
(-0.0896855 0.00677489 0)
(-0.090369 0.0016824 0)
(-0.0801868 -0.00359343 0)
(-0.0600161 -0.00824921 0)
(-0.0336005 -0.0108258 0)
(-0.00541027 -0.0097859 0)
(0.0165985 -0.0047887 0)
(0.0243747 0.00275419 0)
(0.016137 0.00645105 0)
(0.00430975 0.00470664 0)
(0.00170773 -0.00503896 0)
(0.00312708 -0.00400417 0)
(-0.000464065 0.00059999 0)
(-0.0113638 0.00643725 0)
(-0.0314162 0.0140241 0)
(-0.0610641 0.0237162 0)
(-0.0966737 0.0329758 0)
(-0.131218 0.0370069 0)
(-0.158694 0.0334596 0)
(-0.17582 0.0233842 0)
(-0.181188 0.00913282 0)
(-0.174856 -0.00693314 0)
(-0.157397 -0.0230922 0)
(-0.129554 -0.0368246 0)
(-0.0935871 -0.0444885 0)
(-0.0522343 -0.0417965 0)
(-0.0114842 -0.0263482 0)
(0.0167917 -0.00133852 0)
(0.0178171 0.0161611 0)
(0.00553262 0.0147846 0)
(-0.000252038 -0.00573077 0)
(-0.00540503 0.000845455 0)
(-0.0196194 0.014296 0)
(-0.0444609 0.0311763 0)
(-0.0802052 0.0493284 0)
(-0.121963 0.0641635 0)
(-0.16202 0.0703857 0)
(-0.19488 0.0658992 0)
(-0.218434 0.052114 0)
(-0.23209 0.0315199 0)
(-0.235857 0.00646719 0)
(-0.230402 -0.021004 0)
(-0.216037 -0.0487195 0)
(-0.192256 -0.0730549 0)
(-0.158795 -0.0888691 0)
(-0.115618 -0.0891233 0)
(-0.0645302 -0.0670066 0)
(-0.013868 -0.0227448 0)
(0.00944647 0.0178176 0)
(0.00415413 0.0235222 0)
(-0.00347217 0.000511766 0)
(-0.0174986 0.0172648 0)
(-0.0434502 0.0414354 0)
(-0.0795245 0.0680389 0)
(-0.122686 0.0909394 0)
(-0.165474 0.103605 0)
(-0.201464 0.102682 0)
(-0.228726 0.0895023 0)
(-0.247524 0.0672267 0)
(-0.258459 0.0385627 0)
(-0.26237 0.00538912 0)
(-0.260063 -0.0309591 0)
(-0.251474 -0.0682298 0)
(-0.235559 -0.103479 0)
(-0.210325 -0.131228 0)
(-0.173071 -0.142677 0)
(-0.121237 -0.125649 0)
(-0.0568019 -0.0708714 0)
(-0.00101555 0.00345284 0)
(0.00474106 0.0281672 0)
(-0.00664985 0.0148188 0)
(-0.0286676 0.0440753 0)
(-0.0631423 0.0769372 0)
(-0.104201 0.108659 0)
(-0.146905 0.130893 0)
(-0.184112 0.13788 0)
(-0.212379 0.129226 0)
(-0.232102 0.108532 0)
(-0.244573 0.0796652 0)
(-0.25152 0.0454151 0)
(-0.254632 0.0073197 0)
(-0.254833 -0.0338078 0)
(-0.251901 -0.0768022 0)
(-0.245283 -0.120345 0)
(-0.232167 -0.160462 0)
(-0.207933 -0.188702 0)
(-0.166537 -0.189733 0)
(-0.103294 -0.142769 0)
(-0.0221839 -0.0389267 0)
(0.00736214 0.0270131 0)
(-0.00848607 0.0348538 0)
(-0.0350779 0.076518 0)
(-0.0728872 0.114695 0)
(-0.112942 0.147341 0)
(-0.150102 0.165633 0)
(-0.178886 0.165584 0)
(-0.198342 0.149421 0)
(-0.210022 0.122232 0)
(-0.215912 0.0883653 0)
(-0.218496 0.0508079 0)
(-0.219743 0.0110289 0)
(-0.220658 -0.0305467 0)
(-0.221441 -0.0743904 0)
(-0.22219 -0.12088 0)
(-0.220709 -0.168793 0)
(-0.211901 -0.212642 0)
(-0.187676 -0.238228 0)
(-0.139443 -0.218283 0)
(-0.0627392 -0.118852 0)
(0.00581351 0.0141369 0)
(-0.00826238 0.0569143 0)
(-0.0352242 0.109796 0)
(-0.0716076 0.15014 0)
(-0.10674 0.180736 0)
(-0.136286 0.193402 0)
(-0.156622 0.186029 0)
(-0.16846 0.162915 0)
(-0.173918 0.130202 0)
(-0.175408 0.0926584 0)
(-0.175435 0.0533032 0)
(-0.17551 0.0133766 0)
(-0.176316 -0.0270681 0)
(-0.1784 -0.069173 0)
(-0.182301 -0.114216 0)
(-0.187366 -0.163311 0)
(-0.189953 -0.215308 0)
(-0.182165 -0.261224 0)
(-0.154002 -0.274821 0)
(-0.099201 -0.205672 0)
(-0.00890109 -0.0146687 0)
(-0.00610794 0.0774339 0)
(-0.02968 0.140255 0)
(-0.0612108 0.180787 0)
(-0.0895878 0.207813 0)
(-0.111522 0.214383 0)
(-0.124993 0.200081 0)
(-0.131604 0.170893 0)
(-0.133663 0.133797 0)
(-0.133626 0.0937873 0)
(-0.133441 0.0535804 0)
(-0.133798 0.0138999 0)
(-0.134884 -0.02562 0)
(-0.13716 -0.065999 0)
(-0.141315 -0.108462 0)
(-0.147958 -0.154991 0)
(-0.155764 -0.207947 0)
(-0.15874 -0.265373 0)
(-0.146505 -0.307701 0)
(-0.112063 -0.27687 0)
(-0.0308928 -0.0752514 0)
(-0.00271204 0.0933835 0)
(-0.0203295 0.165263 0)
(-0.0449773 0.205101 0)
(-0.0660966 0.228011 0)
(-0.0813035 0.228957 0)
(-0.0897353 0.208991 0)
(-0.0932925 0.175273 0)
(-0.0941133 0.135292 0)
(-0.0942964 0.0940521 0)
(-0.095014 0.0537867 0)
(-0.0963163 0.0145917 0)
(-0.0981119 -0.0243099 0)
(-0.100574 -0.0636946 0)
(-0.104209 -0.10426 0)
(-0.110165 -0.147642 0)
(-0.119165 -0.197795 0)
(-0.128048 -0.25916 0)
(-0.126329 -0.322955 0)
(-0.107327 -0.334327 0)
(-0.0372792 -0.163141 0)
(0.00122202 0.102478 0)
(-0.00889197 0.183037 0)
(-0.0255308 0.222595 0)
(-0.0394751 0.242137 0)
(-0.0489094 0.238886 0)
(-0.0537366 0.214927 0)
(-0.0556458 0.178194 0)
(-0.0562866 0.136545 0)
(-0.0571769 0.0949 0)
(-0.0588639 0.0549601 0)
(-0.0611216 0.0162674 0)
(-0.0638053 -0.0222282 0)
(-0.0669098 -0.0611773 0)
(-0.0706188 -0.100822 0)
(-0.0758698 -0.14188 0)
(-0.0842381 -0.188026 0)
(-0.0958214 -0.247605 0)
(-0.100522 -0.323761 0)
(-0.0950769 -0.371756 0)
(-0.0308878 -0.242192 0)
(0.00510151 0.103624 0)
(0.00296108 0.192593 0)
(-0.005351 0.233049 0)
(-0.012436 0.25013 0)
(-0.0168008 0.244027 0)
(-0.0186614 0.21782 0)
(-0.0193149 0.179776 0)
(-0.0198033 0.137745 0)
(-0.0210667 0.0964004 0)
(-0.0232784 0.0570624 0)
(-0.0261497 0.0189991 0)
(-0.0296173 -0.0189338 0)
(-0.0336984 -0.0574313 0)
(-0.0383401 -0.0965837 0)
(-0.0440946 -0.13635 0)
(-0.0522077 -0.179172 0)
(-0.0655977 -0.234794 0)
(-0.0741637 -0.317475 0)
(-0.0811542 -0.396227 0)
(-0.022927 -0.306698 0)
(0.0084177 0.0971661 0)
(0.0141697 0.19357 0)
(0.0140577 0.236555 0)
(0.0136686 0.252894 0)
(0.0142939 0.245792 0)
(0.0154932 0.21909 0)
(0.0163573 0.181059 0)
(0.0164158 0.139391 0)
(0.0152765 0.0985632 0)
(0.0129922 0.0598361 0)
(0.00982309 0.0225113 0)
(0.00572818 -0.0145557 0)
(0.000563701 -0.0521858 0)
(-0.00553175 -0.090512 0)
(-0.0129666 -0.129194 0)
(-0.0219096 -0.16928 0)
(-0.0376667 -0.219774 0)
(-0.0487567 -0.303808 0)
(-0.0679139 -0.407984 0)
(-0.0144641 -0.359574 0)
(0.0102691 0.0842437 0)
(0.0233125 0.185995 0)
(0.0309508 0.232688 0)
(0.0368596 0.249446 0)
(0.0424998 0.242581 0)
(0.0474321 0.216804 0)
(0.0508448 0.180065 0)
(0.0524922 0.139713 0)
(0.0523272 0.100061 0)
(0.0505639 0.0624385 0)
(0.0474348 0.0263275 0)
(0.0428357 -0.00935801 0)
(0.0365961 -0.0455379 0)
(0.0288297 -0.0824068 0)
(0.0187469 -0.119619 0)
(0.00747817 -0.157437 0)
(-0.0118924 -0.203466 0)
(-0.0243501 -0.285798 0)
(-0.0559006 -0.410514 0)
(-0.00615629 -0.401455 0)
(0.00981282 0.067085 0)
(0.0288805 0.170248 0)
(0.0441493 0.221641 0)
(0.0566437 0.240648 0)
(0.0678909 0.235689 0)
(0.0775311 0.212335 0)
(0.0847024 0.178072 0)
(0.0891028 0.13979 0)
(0.0908107 0.101737 0)
(0.0901341 0.0654706 0)
(0.0874104 0.0308464 0)
(0.0823677 -0.0031651 0)
(0.0748908 -0.0371405 0)
(0.0652587 -0.0716803 0)
(0.0521053 -0.106605 0)
(0.0372679 -0.141821 0)
(0.0129253 -0.183339 0)
(-0.000103069 -0.262589 0)
(-0.0448926 -0.406261 0)
(0.0027338 -0.435897 0)
(0.00688156 0.049354 0)
(0.0291965 0.148626 0)
(0.0508545 0.203124 0)
(0.0696596 0.223942 0)
(0.0870672 0.221049 0)
(0.102694 0.200899 0)
(0.115293 0.170341 0)
(0.124185 0.135515 0)
(0.129283 0.100421 0)
(0.130841 0.0667447 0)
(0.129134 0.0347298 0)
(0.124206 0.00354627 0)
(0.115604 -0.027125 0)
(0.103937 -0.0581541 0)
(0.086961 -0.0896013 0)
(0.0678923 -0.122094 0)
(0.0379704 -0.16002 0)
(0.0236393 -0.236554 0)
(-0.0345595 -0.398572 0)
(0.0134267 -0.464149 0)
(0.00236828 0.0346711 0)
(0.0234946 0.123687 0)
(0.050688 0.179541 0)
(0.0763172 0.202426 0)
(0.100888 0.202068 0)
(0.12368 0.185669 0)
(0.143042 0.159647 0)
(0.157761 0.129279 0)
(0.167422 0.0981789 0)
(0.172242 0.0680423 0)
(0.172172 0.0394593 0)
(0.167931 0.0120153 0)
(0.158128 -0.014649 0)
(0.144462 -0.0412772 0)
(0.123285 -0.0681712 0)
(0.0998837 -0.0968714 0)
(0.064197 -0.132017 0)
(0.046767 -0.206978 0)
(-0.0228455 -0.386819 0)
(0.0284643 -0.485379 0)
(-0.00341453 0.0287236 0)
(0.00996861 0.101421 0)
(0.0368712 0.148407 0)
(0.0686154 0.169053 0)
(0.101395 0.170222 0)
(0.133003 0.157929 0)
(0.160891 0.137525 0)
(0.183331 0.113179 0)
(0.199287 0.0879739 0)
(0.209131 0.0634377 0)
(0.21201 0.0403145 0)
(0.20973 0.018474 0)
(0.199504 -0.00245794 0)
(0.18494 -0.0229652 0)
(0.160254 -0.0435273 0)
(0.13379 -0.0672274 0)
(0.0924552 -0.101171 0)
(0.0696422 -0.17963 0)
(-0.00449874 -0.369889 0)
(0.0520961 -0.491555 0)
(-0.013939 0.0186242 0)
(-0.00750652 0.0881981 0)
(0.019077 0.124056 0)
(0.0561683 0.137068 0)
(0.0971754 0.136598 0)
(0.137414 0.1274 0)
(0.173532 0.112758 0)
(0.20325 0.0950184 0)
(0.225044 0.0766061 0)
(0.240048 0.0585315 0)
(0.246042 0.0417517 0)
(0.246939 0.0261512 0)
(0.23765 0.0118913 0)
(0.225898 -0.00182222 0)
(0.201039 -0.0157916 0)
(0.177231 -0.034698 0)
(0.133085 -0.0674786 0)
(0.107602 -0.145816 0)
(0.037366 -0.326098 0)
(0.0923243 -0.455864 0)
(-0.105967 0.0824935 0)
(-0.0777132 0.0690553 0)
(-0.0485804 0.0733221 0)
(0.00365919 0.0777701 0)
(0.05704 0.078061 0)
(0.109632 0.0737811 0)
(0.15667 0.0664536 0)
(0.198906 0.0570715 0)
(0.230924 0.0474335 0)
(0.258998 0.0378203 0)
(0.274697 0.0292061 0)
(0.289845 0.0212683 0)
(0.290247 0.0145607 0)
(0.294428 0.0082121 0)
(0.278263 0.00127822 0)
(0.271187 -0.00986126 0)
(0.232018 -0.0354365 0)
(0.218003 -0.0953623 0)
(0.150185 -0.229723 0)
(0.170668 -0.34147 0)
(0.129997 0.103763 0)
(0.15838 0.075282 0)
(0.212263 0.0532897 0)
(0.270768 0.041672 0)
(0.323302 0.035945 0)
(0.375671 0.0319648 0)
(0.420184 0.0289237 0)
(0.465417 0.0255841 0)
(0.498442 0.0229078 0)
(0.533637 0.0197192 0)
(0.553048 0.0175631 0)
(0.578855 0.0146314 0)
(0.585018 0.0131943 0)
(0.603407 0.0103809 0)
(0.594898 0.0094229 0)
(0.603482 0.00503493 0)
(0.567755 0.000117365 0)
(0.547659 -0.0182995 0)
(0.435775 -0.0504146 0)
(0.336794 -0.101394 0)
)
;

boundaryField
{
    movingWall
    {
        type            fixedValue;
        value           uniform (1 0 0);
    }
    fixedWalls
    {
        type            noSlip;
    }
    frontAndBack
    {
        type            empty;
    }
}


// ************************************************************************* //
