/*--------------------------------*- C++ -*----------------------------------*\
| =========                 |                                                 |
| \\      /  F ield         | OpenFOAM: The Open Source CFD Toolbox           |
|  \\    /   O peration     | Version:  2212                                  |
|   \\  /    A nd           | Website:  www.openfoam.com                      |
|    \\/     M anipulation  |                                                 |
\*---------------------------------------------------------------------------*/
FoamFile
{
    version     2.0;
    format      ascii;
    arch        "LSB;label=32;scalar=64";
    class       volScalarField;
    location    "12.4";
    object      p;
}
// * * * * * * * * * * * * * * * * * * * * * * * * * * * * * * * * * * * * * //

dimensions      [0 2 -2 0 0 0 0];

internalField   nonuniform List<scalar> 
400
(
3.68404e-07
-0.000150637
-0.00053472
-0.00107193
-0.00173265
-0.00249413
-0.00318526
-0.00359784
-0.00356562
-0.00293436
-0.00154879
0.000619186
0.00324941
0.00551392
0.00653359
0.0059227
0.00400188
0.00214945
0.00111045
0.00104139
0.000116249
-5.81682e-05
-0.000377114
-0.00076429
-0.00124421
-0.00188834
-0.00270647
-0.00354379
-0.00408029
-0.00393872
-0.00284672
-0.00082511
0.00168917
0.00396074
0.00512452
0.00474291
0.00310279
0.00137455
0.000592954
0.000683999
0.000536367
0.000264896
-7.73962e-05
-0.000559756
-0.00134747
-0.00258088
-0.00421945
-0.00598412
-0.00740293
-0.00794427
-0.00726458
-0.00546235
-0.00289197
-0.000194935
0.00179148
0.00242749
0.00170855
0.000501846
-0.000396347
-0.000393055
0.00115188
0.000741195
0.000191805
-0.000774934
-0.00245134
-0.00493816
-0.00799556
-0.0111209
-0.0137038
-0.0151774
-0.0152073
-0.0138403
-0.011294
-0.00802949
-0.00475265
-0.00221015
-0.00087083
-0.000706672
-0.00128929
-0.00191861
0.00158329
0.000973678
-2.29563e-05
-0.00192426
-0.00500694
-0.00918048
-0.0139142
-0.0184803
-0.0222167
-0.0246534
-0.0255291
-0.0247233
-0.0223639
-0.0187439
-0.014305
-0.00965613
-0.00559255
-0.00294936
-0.00219372
-0.00401844
0.00129334
0.000444992
-0.00119745
-0.00430461
-0.00900537
-0.014881
-0.0210733
-0.0267158
-0.0311918
-0.0341791
-0.0355459
-0.0351899
-0.0331973
-0.029719
-0.0248997
-0.0189613
-0.0125057
-0.00694879
-0.00440134
-0.00652465
-4.8337e-05
-0.0011476
-0.00349958
-0.00779711
-0.0139329
-0.0211149
-0.0282367
-0.0344083
-0.0391292
-0.0422326
-0.0437203
-0.0436109
-0.0419731
-0.0388791
-0.0343112
-0.0281575
-0.0205393
-0.0127032
-0.00785521
-0.00774841
-0.00245052
-0.00374225
-0.00669874
-0.0119137
-0.0190403
-0.0269824
-0.0345047
-0.0407798
-0.0454514
-0.0484776
-0.0499403
-0.0499316
-0.0485308
-0.0457888
-0.0416627
-0.035927
-0.0283259
-0.0193714
-0.0118226
-0.00798092
-0.0055377
-0.00691531
-0.0102638
-0.0160222
-0.0236586
-0.0318901
-0.0394519
-0.0456136
-0.0501381
-0.0530582
-0.0544874
-0.0545275
-0.0532532
-0.0507262
-0.0469625
-0.0418124
-0.0348682
-0.025948
-0.0167095
-0.00999489
-0.00873383
-0.010086
-0.0135979
-0.0195425
-0.0272868
-0.0354876
-0.0429127
-0.0489104
-0.0533102
-0.0561682
-0.0575921
-0.0576633
-0.0564449
-0.0540117
-0.0504516
-0.0457608
-0.0396344
-0.0315243
-0.0223216
-0.0143402
-0.0115042
-0.012758
-0.0162194
-0.0220546
-0.0296074
-0.0375891
-0.044827
-0.0506999
-0.0550434
-0.0578948
-0.0593372
-0.0594287
-0.0582194
-0.0557894
-0.0522873
-0.0478527
-0.0424314
-0.0353829
-0.0271983
-0.0191796
-0.0135494
-0.0146188
-0.017856
-0.0233156
-0.0304312
-0.0380631
-0.0451181
-0.0509502
-0.0553295
-0.058241
-0.0597286
-0.059831
-0.058589
-0.0560835
-0.0525159
-0.0481384
-0.0432071
-0.0370566
-0.0300321
-0.0224175
-0.0148374
-0.0155679
-0.0183519
-0.0232103
-0.0296935
-0.036879
-0.0437649
-0.0496404
-0.0541552
-0.0572013
-0.0587704
-0.0588775
-0.0575582
-0.0549162
-0.0511774
-0.046656
-0.0419656
-0.0363003
-0.0302262
-0.0228961
-0.0154678
-0.0157221
-0.0177773
-0.0217463
-0.0273897
-0.0340317
-0.0407506
-0.0467407
-0.051493
-0.0547684
-0.0564824
-0.0566234
-0.0552017
-0.0523531
-0.0483462
-0.0435819
-0.0387307
-0.0331415
-0.0280997
-0.0202793
-0.0155743
-0.0152981
-0.016338
-0.0190877
-0.023653
-0.0296341
-0.0361716
-0.0423358
-0.0474277
-0.0510395
-0.0529802
-0.0531836
-0.051691
-0.0485914
-0.0442267
-0.0390538
-0.0337818
-0.0280716
-0.0242315
-0.0143849
-0.0152767
-0.0145501
-0.0142607
-0.0154259
-0.0186848
-0.0238946
-0.0302314
-0.0366147
-0.0421378
-0.0462012
-0.0484894
-0.0488664
-0.0473531
-0.0440209
-0.0392488
-0.0335189
-0.0276412
-0.0216293
-0.0180534
-0.00383285
-0.014662
-0.0136181
-0.0117068
-0.011081
-0.0129536
-0.0173802
-0.023534
-0.0301704
-0.0361932
-0.0408115
-0.0435787
-0.0442617
-0.0428506
-0.0393763
-0.0341852
-0.0276897
-0.0206822
-0.0132761
-0.00678571
0.016053
-0.0145831
-0.0126571
-0.00864839
-0.00623454
-0.00691
-0.0107458
-0.0168178
-0.0237399
-0.0302986
-0.0355392
-0.0389036
-0.040035
-0.0388775
-0.035448
-0.0298958
-0.0222758
-0.0128725
-0.000688085
0.0166951
0.0570639
-0.0117945
-0.0118306
-0.00572603
-0.00177495
-0.00176493
-0.00540467
-0.0115751
-0.0188149
-0.0258755
-0.0316874
-0.0356623
-0.0373618
-0.0366852
-0.0333553
-0.0272241
-0.0175415
-0.00314817
0.0204904
0.0607044
0.129821
-0.0295167
-0.0106296
-0.000608795
0.00308088
0.00244831
-0.00155695
-0.0079994
-0.0155533
-0.0229761
-0.0291737
-0.0335319
-0.0355879
-0.0352011
-0.0319557
-0.0252275
-0.0128599
0.00942269
0.0511716
0.122878
0.226076
)
;

boundaryField
{
    movingWall
    {
        type            zeroGradient;
    }
    fixedWalls
    {
        type            zeroGradient;
    }
    frontAndBack
    {
        type            empty;
    }
}


// ************************************************************************* //
