/*--------------------------------*- C++ -*----------------------------------*\
| =========                 |                                                 |
| \\      /  F ield         | OpenFOAM: The Open Source CFD Toolbox           |
|  \\    /   O peration     | Version:  2212                                  |
|   \\  /    A nd           | Website:  www.openfoam.com                      |
|    \\/     M anipulation  |                                                 |
\*---------------------------------------------------------------------------*/
FoamFile
{
    version     2.0;
    format      ascii;
    arch        "LSB;label=32;scalar=64";
    class       volScalarField;
    location    "12.4";
    object      T;
}
// * * * * * * * * * * * * * * * * * * * * * * * * * * * * * * * * * * * * * //

dimensions      [0 0 0 1 0 0 0];

internalField   nonuniform List<scalar> 
400
(
0.935142
0.936564
0.939455
0.943729
0.9487
0.953218
0.956435
0.958289
0.95928
0.959949
0.960556
0.961181
0.961848
0.962534
0.963132
0.963466
0.963247
0.96217
0.960399
0.958948
0.936971
0.938713
0.942204
0.947195
0.95246
0.956321
0.958198
0.958854
0.959083
0.959256
0.959598
0.960242
0.961233
0.962514
0.963826
0.964768
0.964731
0.963251
0.960937
0.959267
0.939828
0.942164
0.946496
0.951705
0.955795
0.957531
0.957494
0.956716
0.955736
0.954994
0.954872
0.955637
0.957299
0.959805
0.962701
0.96532
0.966542
0.965252
0.961925
0.95986
0.942626
0.945573
0.950292
0.954518
0.95634
0.95561
0.953438
0.950665
0.947922
0.945893
0.945101
0.945985
0.948436
0.952506
0.95764
0.963034
0.967203
0.968185
0.964487
0.961255
0.944781
0.948081
0.952441
0.954831
0.95401
0.950654
0.945953
0.940768
0.936025
0.932566
0.931003
0.931849
0.934967
0.940471
0.947865
0.956351
0.964435
0.969802
0.969107
0.963853
0.946205
0.949496
0.952897
0.953064
0.949533
0.94348
0.936142
0.928602
0.92203
0.917313
0.915073
0.915718
0.919236
0.925692
0.934764
0.945776
0.957424
0.967548
0.972558
0.96766
0.947007
0.94996
0.952063
0.949992
0.943946
0.935402
0.925717
0.916256
0.908321
0.902774
0.90013
0.900596
0.90424
0.911087
0.921022
0.933633
0.947871
0.961752
0.972079
0.973118
0.947359
0.949815
0.95062
0.946594
0.938394
0.927727
0.916166
0.905321
0.896533
0.89057
0.887771
0.888167
0.891769
0.898574
0.908617
0.921865
0.937757
0.954512
0.968832
0.976043
0.947404
0.949324
0.948992
0.943414
0.933549
0.9213
0.90843
0.896698
0.887427
0.881271
0.87841
0.878776
0.8823
0.888904
0.898611
0.911667
0.928237
0.947154
0.964664
0.974743
0.947257
0.94873
0.947623
0.941079
0.930144
0.91685
0.903124
0.890823
0.881235
0.874914
0.87194
0.872223
0.875661
0.882094
0.891396
0.903808
0.920138
0.940351
0.960897
0.973761
0.946982
0.94814
0.946602
0.939604
0.928159
0.914388
0.900305
0.887763
0.877987
0.871475
0.868286
0.868362
0.871621
0.87787
0.886814
0.898458
0.913905
0.934458
0.957394
0.973135
0.946617
0.947622
0.946065
0.939246
0.927953
0.914282
0.900272
0.887725
0.877826
0.871082
0.867593
0.867339
0.870261
0.876174
0.884689
0.89551
0.909674
0.929804
0.954591
0.972793
0.946154
0.947143
0.945843
0.939656
0.929065
0.916045
0.902591
0.890411
0.880641
0.873807
0.87006
0.869406
0.871826
0.877148
0.88498
0.894854
0.907455
0.926396
0.952378
0.972755
0.945564
0.946675
0.945913
0.94086
0.931604
0.919853
0.907474
0.896049
0.886661
0.879868
0.875893
0.874742
0.876462
0.880887
0.887674
0.896293
0.907137
0.924416
0.95095
0.972965
0.94479
0.946097
0.945865
0.942044
0.934452
0.924456
0.913703
0.903589
0.895083
0.888718
0.884758
0.883198
0.884118
0.887389
0.892743
0.899818
0.908788
0.92384
0.950205
0.973429
0.943871
0.945429
0.945884
0.943496
0.937925
0.930144
0.921486
0.913116
0.905862
0.900204
0.896398
0.894485
0.894486
0.896372
0.89998
0.905141
0.91208
0.92445
0.950181
0.97416
0.942957
0.944488
0.945154
0.943794
0.940082
0.934646
0.928418
0.922255
0.916759
0.912305
0.909057
0.907111
0.906406
0.907014
0.908925
0.912117
0.917231
0.92725
0.951684
0.975404
0.942312
0.944139
0.945324
0.94483
0.942769
0.939512
0.935605
0.93157
0.927786
0.924541
0.921936
0.920094
0.919001
0.918726
0.919446
0.921089
0.924854
0.932563
0.954498
0.976971
0.933687
0.942275
0.94231
0.942069
0.940966
0.93947
0.937748
0.936143
0.934665
0.933576
0.932779
0.932421
0.932448
0.932831
0.933863
0.935181
0.938555
0.944428
0.961077
0.979657
0.953413
0.959054
0.962082
0.963905
0.964889
0.96551
0.965843
0.96618
0.966419
0.966785
0.967109
0.967593
0.968042
0.968648
0.969233
0.970041
0.97107
0.973236
0.977549
0.985154
)
;

boundaryField
{
    movingWall
    {
        type            fixedValue;
        value           uniform 1;
    }
    fixedWalls
    {
        type            zeroGradient;
    }
    frontAndBack
    {
        type            empty;
    }
}


// ************************************************************************* //
