/*--------------------------------*- C++ -*----------------------------------*\
| =========                 |                                                 |
| \\      /  F ield         | OpenFOAM: The Open Source CFD Toolbox           |
|  \\    /   O peration     | Version:  2212                                  |
|   \\  /    A nd           | Website:  www.openfoam.com                      |
|    \\/     M anipulation  |                                                 |
\*---------------------------------------------------------------------------*/
FoamFile
{
    version     2.0;
    format      ascii;
    arch        "LSB;label=32;scalar=64";
    class       surfaceScalarField;
    location    "3.6";
    object      phi;
}
// * * * * * * * * * * * * * * * * * * * * * * * * * * * * * * * * * * * * * //

dimensions      [0 3 -1 0 0 0 0];

oriented        oriented;

internalField   nonuniform List<scalar> 
760
(
1.51452e-07
-1.51454e-07
2.83777e-07
-1.32325e-07
2.97982e-07
-1.42051e-08
1.72196e-07
1.25787e-07
-1.28359e-07
3.00555e-07
-6.65887e-07
5.37528e-07
-1.47177e-06
8.05885e-07
-2.46199e-06
9.90218e-07
-3.43961e-06
9.77621e-07
-4.17514e-06
7.35533e-07
-4.50178e-06
3.26639e-07
-4.32289e-06
-1.78891e-07
-3.57973e-06
-7.43159e-07
-2.38376e-06
-1.19598e-06
-9.61614e-07
-1.42214e-06
3.1587e-07
-1.27748e-06
1.06021e-06
-7.44341e-07
1.01492e-06
4.52955e-08
4.54535e-07
5.60381e-07
4.54535e-07
1.17366e-07
-2.6882e-07
6.11907e-08
-7.61489e-08
-3.08245e-07
3.5523e-07
-1.07917e-06
8.96712e-07
-2.29637e-06
1.51775e-06
-3.88261e-06
2.12377e-06
-5.59438e-06
2.51766e-06
-7.12393e-06
2.51977e-06
-8.24742e-06
2.10111e-06
-8.85392e-06
1.34203e-06
-8.89559e-06
3.68313e-07
-8.34878e-06
-7.25706e-07
-7.24438e-06
-1.84756e-06
-5.61403e-06
-2.82632e-06
-3.59936e-06
-3.43681e-06
-1.50144e-06
-3.37541e-06
1.56209e-07
-2.40199e-06
8.40246e-07
-6.38742e-07
5.18015e-07
8.82611e-07
9.72551e-07
-1.32616e-07
-1.36204e-07
-6.36863e-07
4.28098e-07
-1.61462e-06
1.33298e-06
-3.1069e-06
2.389e-06
-4.9934e-06
3.40425e-06
-6.98288e-06
4.11326e-06
-8.76456e-06
4.29933e-06
-1.01577e-05
3.91286e-06
-1.11087e-05
3.0522e-06
-1.16096e-05
1.84292e-06
-1.16109e-05
3.6961e-07
-1.11618e-05
-1.17485e-06
-1.02439e-05
-2.76545e-06
-8.80284e-06
-4.26738e-06
-6.8178e-06
-5.42186e-06
-4.37633e-06
-5.81687e-06
-1.87359e-06
-4.90473e-06
-9.3293e-08
-2.41904e-06
2.91358e-07
4.9796e-07
1.26391e-06
-4.96544e-07
3.60339e-07
-1.54293e-06
1.47448e-06
-3.0782e-06
2.86825e-06
-5.00981e-06
4.32061e-06
-7.08526e-06
5.4797e-06
-9.00193e-06
6.02994e-06
-1.05578e-05
5.85518e-06
-1.17078e-05
5.06283e-06
-1.24789e-05
3.82336e-06
-1.29061e-05
2.27012e-06
-1.29761e-05
4.39648e-07
-1.27443e-05
-1.40668e-06
-1.2174e-05
-3.33579e-06
-1.11631e-05
-5.27821e-06
-9.58051e-06
-7.00449e-06
-7.30155e-06
-8.09583e-06
-4.36446e-06
-7.84182e-06
-1.37242e-06
-5.41108e-06
1.17742e-07
-9.92205e-07
1.38165e-06
-8.48782e-07
1.20912e-06
-2.3249e-06
2.9506e-06
-4.16635e-06
4.7097e-06
-6.18444e-06
6.3387e-06
-8.10377e-06
7.39903e-06
-9.70274e-06
7.62891e-06
-1.09022e-05
7.05463e-06
-1.17267e-05
5.88737e-06
-1.22379e-05
4.33458e-06
-1.25091e-05
2.54126e-06
-1.26302e-05
5.60758e-07
-1.25913e-05
-1.44553e-06
-1.23821e-05
-3.54502e-06
-1.19224e-05
-5.7379e-06
-1.10254e-05
-7.90157e-06
-9.4034e-06
-9.71778e-06
-6.76017e-06
-1.04851e-05
-3.19617e-06
-8.97507e-06
-2.62355e-07
-3.92602e-06
1.1193e-06
-1.06647e-06
2.27559e-06
-2.73554e-06
4.61967e-06
-4.59996e-06
6.57412e-06
-6.43308e-06
8.17182e-06
-8.01314e-06
8.97909e-06
-9.20763e-06
8.82339e-06
-1.00094e-05
7.8564e-06
-1.04821e-05
6.36007e-06
-1.07161e-05
4.5686e-06
-1.08125e-05
2.63767e-06
-1.08932e-05
6.41469e-07
-1.09498e-05
-1.38898e-06
-1.09959e-05
-3.49891e-06
-1.10009e-05
-5.73287e-06
-1.0809e-05
-8.0935e-06
-1.00914e-05
-1.04353e-05
-8.35608e-06
-1.22204e-05
-5.19323e-06
-1.21379e-05
-1.1494e-06
-7.96985e-06
-3.01003e-08
-1.08757e-06
3.36316e-06
-2.70711e-06
6.23921e-06
-4.37937e-06
8.24638e-06
-5.89492e-06
9.68737e-06
-7.09429e-06
1.01785e-05
-7.91244e-06
9.64155e-06
-8.38402e-06
8.32798e-06
-8.59485e-06
6.5709e-06
-8.64914e-06
4.62288e-06
-8.64624e-06
2.63478e-06
-8.67182e-06
6.67042e-07
-8.74718e-06
-1.31362e-06
-8.89179e-06
-3.35431e-06
-9.11598e-06
-5.50868e-06
-9.35964e-06
-7.84984e-06
-9.38702e-06
-1.0408e-05
-8.67712e-06
-1.29303e-05
-6.47848e-06
-1.43366e-05
-2.39862e-06
-1.20497e-05
-2.42872e-06
-9.14948e-07
4.27811e-06
-2.30208e-06
7.62634e-06
-3.66888e-06
9.61318e-06
-4.83235e-06
1.08508e-05
-5.69078e-06
1.10369e-05
-6.22458e-06
1.01754e-05
-6.48835e-06
8.59175e-06
-6.57239e-06
6.65494e-06
-6.57434e-06
4.62483e-06
-6.57e-06
2.63043e-06
-6.5983e-06
6.95347e-07
-6.67797e-06
-1.23395e-06
-6.83113e-06
-3.20115e-06
-7.08849e-06
-5.25131e-06
-7.46504e-06
-7.4733e-06
-7.86419e-06
-1.00088e-05
-7.86999e-06
-1.29245e-05
-6.66515e-06
-1.55414e-05
-3.54901e-06
-1.51659e-05
-5.97773e-06
-6.0993e-07
4.88804e-06
-1.65383e-06
8.67024e-06
-2.6719e-06
1.06313e-05
-3.49913e-06
1.16781e-05
-4.0788e-06
1.16166e-05
-4.41898e-06
1.05155e-05
-4.57682e-06
8.74959e-06
-4.63071e-06
6.70883e-06
-4.6545e-06
4.64863e-06
-4.69419e-06
2.67012e-06
-4.76137e-06
7.62528e-07
-4.86357e-06
-1.13175e-06
-5.01191e-06
-3.05281e-06
-5.23647e-06
-5.02674e-06
-5.59292e-06
-7.11686e-06
-6.09145e-06
-9.51029e-06
-6.50515e-06
-1.25108e-05
-6.08784e-06
-1.59587e-05
-3.89432e-06
-1.73594e-05
-9.87205e-06
-2.2558e-07
5.11362e-06
-8.74212e-07
9.31887e-06
-1.53588e-06
1.12929e-05
-2.05743e-06
1.21996e-05
-2.40999e-06
1.19691e-05
-2.61667e-06
1.07222e-05
-2.72507e-06
8.85798e-06
-2.78862e-06
6.77238e-06
-2.85318e-06
4.71318e-06
-2.9418e-06
2.75874e-06
-3.05741e-06
8.78134e-07
-3.20004e-06
-9.89109e-07
-3.37081e-06
-2.88205e-06
-3.58376e-06
-4.81379e-06
-3.89302e-06
-6.8076e-06
-4.38063e-06
-9.02268e-06
-4.98653e-06
-1.19049e-05
-5.09907e-06
-1.58462e-05
-3.54149e-06
-1.8917e-05
-1.34135e-05
1.61484e-07
4.95213e-06
-6.67556e-08
9.54711e-06
-3.94507e-07
1.16207e-05
-6.41332e-07
1.24464e-05
-7.92295e-07
1.21201e-05
-8.7805e-07
1.0808e-05
-9.38216e-07
8.91815e-06
-1.00499e-06
6.83916e-06
-1.09522e-06
4.80342e-06
-1.21634e-06
2.87986e-06
-1.37007e-06
1.03186e-06
-1.55835e-06
-8.00825e-07
-1.78047e-06
-2.65994e-06
-2.03618e-06
-4.55808e-06
-2.35621e-06
-6.48757e-06
-2.83724e-06
-8.54165e-06
-3.53896e-06
-1.12032e-05
-4.0143e-06
-1.53708e-05
-3.01829e-06
-1.9913e-05
-1.64318e-05
4.90601e-07
4.46153e-06
6.85589e-07
9.35212e-06
7.28211e-07
1.15781e-05
7.64055e-07
1.24106e-05
8.09838e-07
1.20743e-05
8.39417e-07
1.07784e-05
8.32208e-07
8.92536e-06
7.79755e-07
6.89161e-06
6.84404e-07
4.89877e-06
5.489e-07
3.01536e-06
3.69535e-07
1.21123e-06
1.40348e-07
-5.71638e-07
-1.41451e-07
-2.37814e-06
-4.82408e-07
-4.21712e-06
-8.89903e-07
-6.08007e-06
-1.41385e-06
-8.0177e-06
-2.20192e-06
-1.04151e-05
-2.95759e-06
-1.46152e-05
-2.463e-06
-2.04076e-05
-1.88948e-05
7.38707e-07
3.72283e-06
1.32625e-06
8.76457e-06
1.71338e-06
1.11909e-05
2.0394e-06
1.20846e-05
2.31071e-06
1.1803e-05
2.49532e-06
1.05938e-05
2.58357e-06
8.83712e-06
2.5862e-06
6.88897e-06
2.51863e-06
4.96634e-06
2.39012e-06
3.14388e-06
2.1952e-06
1.40614e-06
1.92026e-06
-2.967e-07
1.56387e-06
-2.02175e-06
1.12074e-06
-3.77399e-06
5.84869e-07
-5.5442e-06
-9.91772e-08
-7.33366e-06
-9.73833e-07
-9.54045e-06
-1.93757e-06
-1.36514e-05
-1.93394e-06
-2.04112e-05
-2.08288e-05
8.48877e-07
2.87395e-06
1.77083e-06
7.84262e-06
2.50137e-06
1.04604e-05
3.13474e-06
1.14512e-05
3.67706e-06
1.12607e-05
4.08333e-06
1.01875e-05
4.33604e-06
8.58441e-06
4.44901e-06
6.776e-06
4.44678e-06
4.96857e-06
4.34646e-06
3.24419e-06
4.14747e-06
1.60514e-06
3.82437e-06
2.64e-08
3.38701e-06
-1.58439e-06
2.81505e-06
-3.20203e-06
2.10728e-06
-4.83643e-06
1.27866e-06
-6.50504e-06
2.34612e-07
-8.4964e-06
-9.86215e-07
-1.24306e-05
-1.44052e-06
-1.99569e-05
-2.22693e-05
7.84848e-07
2.0891e-06
1.90831e-06
6.71916e-06
2.93406e-06
9.43464e-06
3.89533e-06
1.04899e-05
4.7632e-06
1.03928e-05
5.47022e-06
9.48049e-06
5.97573e-06
8.0789e-06
6.2823e-06
6.46943e-06
6.41214e-06
4.83873e-06
6.38558e-06
3.27076e-06
6.20365e-06
1.78706e-06
5.85944e-06
3.70615e-07
5.32854e-06
-1.0535e-06
4.61254e-06
-2.48602e-06
3.70363e-06
-3.92752e-06
2.62972e-06
-5.43113e-06
1.34485e-06
-7.21153e-06
-1.7946e-07
-1.09063e-05
-9.3172e-07
-1.92046e-05
-2.3201e-05
5.6106e-07
1.52804e-06
1.71519e-06
5.56503e-06
3.03059e-06
8.11924e-06
4.36256e-06
9.15797e-06
5.61384e-06
9.14152e-06
6.68495e-06
8.40937e-06
7.50919e-06
7.25467e-06
8.07317e-06
5.90545e-06
8.38997e-06
4.52193e-06
8.47812e-06
3.18261e-06
8.34534e-06
1.91984e-06
7.99033e-06
7.25625e-07
7.37035e-06
-4.33509e-07
6.50159e-06
-1.61726e-06
5.3712e-06
-2.79713e-06
4.02076e-06
-4.0807e-06
2.51402e-06
-5.70479e-06
9.13657e-07
-9.30592e-06
-1.64618e-07
-1.81263e-05
-2.33656e-05
1.42539e-07
1.3855e-06
1.00382e-06
4.70375e-06
2.45448e-06
6.66858e-06
4.15149e-06
7.46095e-06
5.85231e-06
7.4407e-06
7.36997e-06
6.89171e-06
8.60069e-06
6.02395e-06
9.51412e-06
4.99202e-06
1.01053e-05
3.93072e-06
1.03874e-05
2.90054e-06
1.03667e-05
1.94052e-06
1.005e-05
1.04235e-06
9.39767e-06
2.18816e-07
8.42233e-06
-6.41922e-07
7.12107e-06
-1.49587e-06
5.54351e-06
-2.50313e-06
3.84638e-06
-4.00766e-06
2.20163e-06
-7.66116e-06
6.3801e-07
-1.65627e-05
-2.27276e-05
-5.10433e-07
1.89594e-06
1.86322e-07
4.00699e-06
1.70995e-06
5.14495e-06
3.74007e-06
5.43083e-06
5.86557e-06
5.3152e-06
7.80265e-06
4.95463e-06
9.41384e-06
4.41276e-06
1.06576e-05
3.74822e-06
1.15159e-05
3.07243e-06
1.20064e-05
2.41011e-06
1.21338e-05
1.81312e-06
1.1919e-05
1.25708e-06
1.1382e-05
7.55861e-07
1.05008e-05
2.39292e-07
9.27961e-06
-2.74709e-07
7.78492e-06
-1.00844e-06
6.20283e-06
-2.42558e-06
4.42194e-06
-5.88027e-06
2.04114e-06
-1.41819e-05
-2.06865e-05
-4.17209e-06
6.06803e-06
-3.63951e-06
3.47441e-06
-1.26641e-06
2.77186e-06
1.50286e-06
2.66156e-06
4.21293e-06
2.60513e-06
6.72074e-06
2.44682e-06
8.9155e-06
2.218e-06
1.07377e-05
1.92601e-06
1.21697e-05
1.64041e-06
1.32384e-05
1.34145e-06
1.39609e-05
1.09063e-06
1.43814e-05
8.36556e-07
1.44895e-05
6.47719e-07
1.42972e-05
4.31639e-07
1.37916e-05
2.3089e-07
1.29874e-05
-2.04249e-07
1.18783e-05
-1.31649e-06
1.00944e-05
-4.09639e-06
5.63054e-06
-9.71804e-06
-1.50559e-05
6.06803e-06
9.54243e-06
1.23143e-05
1.49759e-05
1.7581e-05
2.00278e-05
2.22458e-05
2.41718e-05
2.58122e-05
2.71537e-05
2.82443e-05
2.90809e-05
2.97286e-05
3.01602e-05
3.03911e-05
3.01869e-05
2.88704e-05
2.4774e-05
1.50559e-05
)
;

boundaryField
{
    movingWall
    {
        type            calculated;
        value           uniform 0;
    }
    fixedWalls
    {
        type            calculated;
        value           uniform 0;
    }
    frontAndBack
    {
        type            empty;
        value           nonuniform List<scalar> 0();
    }
}


// ************************************************************************* //
