/*--------------------------------*- C++ -*----------------------------------*\
| =========                 |                                                 |
| \\      /  F ield         | OpenFOAM: The Open Source CFD Toolbox           |
|  \\    /   O peration     | Version:  2212                                  |
|   \\  /    A nd           | Website:  www.openfoam.com                      |
|    \\/     M anipulation  |                                                 |
\*---------------------------------------------------------------------------*/
FoamFile
{
    version     2.0;
    format      ascii;
    arch        "LSB;label=32;scalar=64";
    class       volScalarField;
    location    "9.2";
    object      p;
}
// * * * * * * * * * * * * * * * * * * * * * * * * * * * * * * * * * * * * * //

dimensions      [0 2 -2 0 0 0 0];

internalField   nonuniform List<scalar> 
400
(
5.73758e-07
-0.000150403
-0.000534459
-0.00107164
-0.00173233
-0.00249376
-0.00318486
-0.00359741
-0.00356518
-0.00293393
-0.00154842
0.000619461
0.00324963
0.0055142
0.00653405
0.00592344
0.00400287
0.00215056
0.00111157
0.00104249
0.000116481
-5.79242e-05
-0.00037685
-0.000764008
-0.00124391
-0.001888
-0.00270607
-0.00354333
-0.00407978
-0.0039382
-0.00284624
-0.000824729
0.00168948
0.0039611
0.00512506
0.00474371
0.00310385
0.00137569
0.000594101
0.000685105
0.000536575
0.000265127
-7.71436e-05
-0.000559481
-0.00134715
-0.00258046
-0.00421889
-0.00598341
-0.00740208
-0.00794336
-0.00726371
-0.00546157
-0.00289128
-0.000194284
0.00179222
0.0024284
0.00170966
0.000503038
-0.000395146
-0.000391906
0.00115203
0.000741368
0.000192022
-0.000774645
-0.0024509
-0.00493747
-0.00799456
-0.0111196
-0.0137023
-0.0151757
-0.0152056
-0.0138387
-0.0112926
-0.0080282
-0.00475147
-0.00220899
-0.000869651
-0.000705473
-0.00128807
-0.00191742
0.00158332
0.000973764
-2.27663e-05
-0.00192388
-0.00500624
-0.00917932
-0.0139125
-0.0184781
-0.022214
-0.0246505
-0.0255261
-0.0247204
-0.0223612
-0.0187416
-0.0143031
-0.00965448
-0.00559114
-0.00294811
-0.00219254
-0.00401718
0.00129329
0.000445027
-0.00119721
-0.004304
-0.00900422
-0.0148792
-0.0210706
-0.0267125
-0.0311878
-0.0341747
-0.0355413
-0.0351855
-0.0331932
-0.0297155
-0.0248967
-0.0189589
-0.0125038
-0.00694733
-0.00440009
-0.00652327
-4.83742e-05
-0.00114752
-0.00349919
-0.00779614
-0.0139312
-0.0211122
-0.0282331
-0.0344037
-0.0391238
-0.0422266
-0.0437141
-0.0436048
-0.0419674
-0.0388741
-0.0343069
-0.0281541
-0.0205367
-0.0127013
-0.00785378
-0.00774714
-0.00245042
-0.00374199
-0.00669808
-0.0119123
-0.0190379
-0.0269788
-0.0344999
-0.0407739
-0.0454445
-0.04847
-0.0499324
-0.0499237
-0.0485234
-0.0457822
-0.0416571
-0.0359225
-0.0283225
-0.0193689
-0.0118209
-0.00797972
-0.00553736
-0.00691478
-0.0102628
-0.0160203
-0.0236555
-0.0318856
-0.0394461
-0.0456065
-0.0501298
-0.0530491
-0.0544778
-0.054518
-0.0532442
-0.0507182
-0.0469557
-0.0418068
-0.0348638
-0.0259448
-0.0167073
-0.00999339
-0.00873321
-0.0100852
-0.0135965
-0.0195401
-0.0272831
-0.0354825
-0.0429061
-0.0489023
-0.0533008
-0.0561578
-0.0575812
-0.0576524
-0.0564346
-0.0540024
-0.0504437
-0.0457544
-0.0396294
-0.0315205
-0.0223188
-0.0143381
-0.0115033
-0.012757
-0.0162178
-0.0220519
-0.0296034
-0.0375835
-0.0448198
-0.0506912
-0.0550333
-0.0578837
-0.0593254
-0.059417
-0.0582083
-0.0557794
-0.0522787
-0.0478457
-0.042426
-0.0353787
-0.027195
-0.019177
-0.0135484
-0.0146176
-0.0178542
-0.0233128
-0.0304271
-0.0380574
-0.0451108
-0.0509413
-0.0553192
-0.0582296
-0.0597167
-0.0598191
-0.0585776
-0.0560733
-0.0525072
-0.0481314
-0.0432016
-0.0370524
-0.0300289
-0.0224147
-0.0148364
-0.0155667
-0.0183501
-0.0232076
-0.0296895
-0.0368736
-0.0437579
-0.0496319
-0.0541453
-0.0571903
-0.0587588
-0.0588659
-0.0575472
-0.0549064
-0.0511692
-0.0466495
-0.0419607
-0.0362966
-0.0302233
-0.0228935
-0.0154667
-0.0157209
-0.0177757
-0.0217439
-0.0273862
-0.0340268
-0.0407443
-0.0467329
-0.0514839
-0.0547583
-0.0564717
-0.0566127
-0.0551917
-0.0523442
-0.048339
-0.0435763
-0.0387268
-0.0331387
-0.0280975
-0.0202775
-0.0155734
-0.0152972
-0.0163367
-0.0190859
-0.0236503
-0.0296302
-0.0361663
-0.0423292
-0.0474198
-0.0510307
-0.0529709
-0.0531742
-0.0516823
-0.0485839
-0.0442208
-0.0390496
-0.0337792
-0.0280701
-0.0242304
-0.0143843
-0.0152759
-0.0145493
-0.0142598
-0.0154247
-0.0186829
-0.0238917
-0.0302273
-0.0366094
-0.0421313
-0.0461938
-0.0484815
-0.0488586
-0.0473459
-0.0440149
-0.0392444
-0.0335162
-0.0276401
-0.0216293
-0.018054
-0.00383356
-0.0146612
-0.0136175
-0.0117063
-0.0110804
-0.0129527
-0.0173786
-0.0235313
-0.0301665
-0.0361882
-0.0408056
-0.0435722
-0.0442553
-0.0428448
-0.0393717
-0.0341822
-0.0276884
-0.0206826
-0.0132777
-0.00678802
0.016051
-0.0145826
-0.0126567
-0.00864827
-0.00623467
-0.00691001
-0.0107452
-0.0168163
-0.0237373
-0.0302949
-0.0355346
-0.0388985
-0.0400299
-0.038873
-0.0354445
-0.0298939
-0.0222756
-0.0128742
-0.000691141
0.0166914
0.0570609
-0.0117942
-0.0118304
-0.00572632
-0.00177564
-0.00176562
-0.00540491
-0.0115745
-0.0188132
-0.0258727
-0.0316837
-0.035658
-0.0373575
-0.0366813
-0.0333524
-0.0272228
-0.017542
-0.00315051
0.0204866
0.0607003
0.129818
-0.0295164
-0.0106296
-0.000609323
0.00307994
0.00244733
-0.00155751
-0.00799915
-0.015552
-0.0229737
-0.0291704
-0.0335279
-0.0355838
-0.0351974
-0.031953
-0.0252262
-0.0128603
0.00942057
0.0511682
0.122874
0.226073
)
;

boundaryField
{
    movingWall
    {
        type            zeroGradient;
    }
    fixedWalls
    {
        type            zeroGradient;
    }
    frontAndBack
    {
        type            empty;
    }
}


// ************************************************************************* //
