/*--------------------------------*- C++ -*----------------------------------*\
| =========                 |                                                 |
| \\      /  F ield         | OpenFOAM: The Open Source CFD Toolbox           |
|  \\    /   O peration     | Version:  2212                                  |
|   \\  /    A nd           | Website:  www.openfoam.com                      |
|    \\/     M anipulation  |                                                 |
\*---------------------------------------------------------------------------*/
FoamFile
{
    version     2.0;
    format      ascii;
    arch        "LSB;label=32;scalar=64";
    class       volVectorField;
    location    "9.2";
    object      U;
}
// * * * * * * * * * * * * * * * * * * * * * * * * * * * * * * * * * * * * * //

dimensions      [0 1 -1 0 0 0 0];

internalField   nonuniform List<vector> 
400
(
(0.00168163 -0.00168372 0)
(0.00483826 -0.00189215 0)
(0.00659054 -0.00120067 0)
(0.00567415 -0.000575085 0)
(0.0015716 0.000184023 0)
(-0.00682954 0.00173938 0)
(-0.0206082 0.00478621 0)
(-0.0395405 0.00873574 0)
(-0.0608101 0.0112923 0)
(-0.0791364 0.0105123 0)
(-0.0898118 0.00677454 0)
(-0.0904628 0.00166916 0)
(-0.0802262 -0.0036162 0)
(-0.0599948 -0.00827465 0)
(-0.0335224 -0.0108469 0)
(-0.00529455 -0.0097952 0)
(0.016722 -0.00477332 0)
(0.0244693 0.00277656 0)
(0.0161782 0.00647198 0)
(0.00431646 0.00471701 0)
(0.00172028 -0.00506487 0)
(0.00316208 -0.00403207 0)
(-0.000417853 0.000587944 0)
(-0.0113305 0.00644167 0)
(-0.0314262 0.0140499 0)
(-0.0611493 0.0237734 0)
(-0.0968453 0.0330609 0)
(-0.131458 0.037092 0)
(-0.158971 0.033517 0)
(-0.176102 0.0234013 0)
(-0.18145 0.00910962 0)
(-0.175079 -0.00698945 0)
(-0.157561 -0.0231735 0)
(-0.129651 -0.0369135 0)
(-0.0936152 -0.0445653 0)
(-0.0521954 -0.0418388 0)
(-0.0114013 -0.0263347 0)
(0.0168884 -0.00127987 0)
(0.0178715 0.0162232 0)
(0.00554211 0.0148196 0)
(-0.000239792 -0.00577977 0)
(-0.00538161 0.000802352 0)
(-0.0196099 0.0142995 0)
(-0.0445043 0.0312358 0)
(-0.080341 0.0494451 0)
(-0.122204 0.0643199 0)
(-0.162349 0.0705459 0)
(-0.195272 0.0660282 0)
(-0.218865 0.0521908 0)
(-0.232533 0.031534 0)
(-0.236289 0.00641688 0)
(-0.230803 -0.0211126 0)
(-0.21639 -0.0488723 0)
(-0.192544 -0.0732264 0)
(-0.159007 -0.0890265 0)
(-0.115743 -0.08923 0)
(-0.0645637 -0.0670297 0)
(-0.0138221 -0.0226658 0)
(0.00948104 0.0179174 0)
(0.00415544 0.0235796 0)
(-0.00347204 0.000454064 0)
(-0.0175151 0.0172411 0)
(-0.0435168 0.0415012 0)
(-0.0796832 0.0681951 0)
(-0.12296 0.0911611 0)
(-0.165854 0.103849 0)
(-0.201926 0.102904 0)
(-0.22925 0.0896717 0)
(-0.248089 0.0673262 0)
(-0.259044 0.0385799 0)
(-0.262951 0.00531801 0)
(-0.260619 -0.0311163 0)
(-0.251986 -0.0684544 0)
(-0.236008 -0.103743 0)
(-0.210696 -0.131491 0)
(-0.173349 -0.142892 0)
(-0.121404 -0.125766 0)
(-0.0568452 -0.0708543 0)
(-0.000987378 0.00356499 0)
(0.00474228 0.02824 0)
(-0.00666287 0.0147838 0)
(-0.0287305 0.0441123 0)
(-0.0632916 0.0770967 0)
(-0.104465 0.108923 0)
(-0.147285 0.131213 0)
(-0.184586 0.1382 0)
(-0.212926 0.129507 0)
(-0.23271 0.108749 0)
(-0.245227 0.0797987 0)
(-0.252203 0.0454482 0)
(-0.255322 0.0072411 0)
(-0.255504 -0.0339969 0)
(-0.252525 -0.0770826 0)
(-0.245844 -0.120687 0)
(-0.232648 -0.160824 0)
(-0.208325 -0.189035 0)
(-0.166823 -0.189985 0)
(-0.103451 -0.142882 0)
(-0.0221829 -0.038855 0)
(0.00738181 0.0271006 0)
(-0.00851114 0.034875 0)
(-0.0351787 0.0766424 0)
(-0.0730961 0.114959 0)
(-0.11327 0.14771 0)
(-0.150535 0.166043 0)
(-0.179399 0.165979 0)
(-0.198925 0.149768 0)
(-0.210672 0.122509 0)
(-0.216621 0.0885474 0)
(-0.219253 0.0508714 0)
(-0.220522 0.0109562 0)
(-0.221423 -0.0307566 0)
(-0.222155 -0.0747197 0)
(-0.222829 -0.121291 0)
(-0.221257 -0.169238 0)
(-0.212354 -0.213071 0)
(-0.188035 -0.2386 0)
(-0.139694 -0.21855 0)
(-0.0628515 -0.118946 0)
(0.00584887 0.0142029 0)
(-0.00829339 0.0570085 0)
(-0.0353444 0.110017 0)
(-0.0718421 0.150506 0)
(-0.107085 0.181199 0)
(-0.136723 0.193894 0)
(-0.15713 0.186498 0)
(-0.169042 0.163334 0)
(-0.17458 0.130549 0)
(-0.176154 0.0929036 0)
(-0.176253 0.0534106 0)
(-0.176366 0.0133153 0)
(-0.177167 -0.027309 0)
(-0.179199 -0.0695757 0)
(-0.183008 -0.114728 0)
(-0.187957 -0.163862 0)
(-0.190428 -0.215831 0)
(-0.18254 -0.261684 0)
(-0.15429 -0.275202 0)
(-0.0994081 -0.205925 0)
(-0.00890842 -0.0146259 0)
(-0.0061363 0.0776062 0)
(-0.029796 0.140572 0)
(-0.0614343 0.181245 0)
(-0.0899079 0.208363 0)
(-0.11192 0.214953 0)
(-0.125458 0.200626 0)
(-0.132149 0.171393 0)
(-0.134301 0.134229 0)
(-0.134363 0.0941143 0)
(-0.134263 0.0537508 0)
(-0.134669 0.0138639 0)
(-0.135763 -0.0258872 0)
(-0.137995 -0.0664817 0)
(-0.14206 -0.109099 0)
(-0.148573 -0.155687 0)
(-0.156239 -0.208604 0)
(-0.159095 -0.26593 0)
(-0.146766 -0.308166 0)
(-0.112266 -0.277237 0)
(-0.0309685 -0.0753438 0)
(-0.00273055 0.0936274 0)
(-0.0204222 0.165666 0)
(-0.0451607 0.20564 0)
(-0.066359 0.228634 0)
(-0.0816299 0.229596 0)
(-0.090122 0.209609 0)
(-0.0937551 0.175856 0)
(-0.0946675 0.135818 0)
(-0.0949449 0.0944722 0)
(-0.0957403 0.0540311 0)
(-0.09709 0.0145941 0)
(-0.0988998 -0.0245833 0)
(-0.101336 -0.0642319 0)
(-0.104904 -0.105002 0)
(-0.11075 -0.148483 0)
(-0.119612 -0.198605 0)
(-0.128366 -0.259835 0)
(-0.126538 -0.323499 0)
(-0.107491 -0.334803 0)
(-0.0373536 -0.163458 0)
(0.00121939 0.102775 0)
(-0.00894535 0.18351 0)
(-0.0256505 0.223197 0)
(-0.0396517 0.24282 0)
(-0.0491328 0.239585 0)
(-0.0540066 0.215611 0)
(-0.0559767 0.178855 0)
(-0.0566897 0.137157 0)
(-0.0576505 0.0954026 0)
(-0.0593924 0.0552699 0)
(-0.0616852 0.0163098 0)
(-0.0643855 -0.0224899 0)
(-0.0674843 -0.061736 0)
(-0.0711599 -0.101628 0)
(-0.0763444 -0.142834 0)
(-0.0846077 -0.188978 0)
(-0.0960762 -0.248401 0)
(-0.10066 -0.324366 0)
(-0.0951804 -0.37227 0)
(-0.0309256 -0.242612 0)
(0.00511886 0.103942 0)
(0.00295752 0.193111 0)
(-0.00539098 0.233693 0)
(-0.0125088 0.250854 0)
(-0.0169003 0.244769 0)
(-0.0187877 0.218552 0)
(-0.0194761 0.180489 0)
(-0.0200044 0.138413 0)
(-0.0213025 0.0969568 0)
(-0.0235383 0.0574199 0)
(-0.0264271 0.0190812 0)
(-0.0299104 -0.0191652 0)
(-0.0340048 -0.0579745 0)
(-0.0386485 -0.0973981 0)
(-0.0443873 -0.137353 0)
(-0.0524479 -0.180225 0)
(-0.0657655 -0.2357 0)
(-0.0742253 -0.318144 0)
(-0.0812024 -0.396776 0)
(-0.0229432 -0.307172 0)
(0.00845835 0.0974674 0)
(0.0142221 0.194105 0)
(0.0141051 0.237216 0)
(0.0137107 0.253635 0)
(0.0143337 0.246555 0)
(0.0155309 0.219847 0)
(0.0163907 0.181798 0)
(0.0164446 0.140083 0)
(0.0153068 0.0991442 0)
(0.0130297 0.0602196 0)
(0.00986188 0.0226249 0)
(0.00575375 -0.0147498 0)
(0.000562257 -0.0526898 0)
(-0.00556313 -0.0912917 0)
(-0.0130308 -0.130184 0)
(-0.0219779 -0.170365 0)
(-0.0377188 -0.220745 0)
(-0.0487303 -0.304505 0)
(-0.0679048 -0.408519 0)
(-0.0144593 -0.360054 0)
(0.0103299 0.0844877 0)
(0.0234208 0.186509 0)
(0.0310852 0.23334 0)
(0.0370155 0.25018 0)
(0.0426779 0.243341 0)
(0.0476333 0.217556 0)
(0.0510709 0.180793 0)
(0.052747 0.140387 0)
(0.0526156 0.100625 0)
(0.0508864 0.0628173 0)
(0.0477766 0.0264553 0)
(0.0431687 -0.0095183 0)
(0.0368952 -0.0459949 0)
(0.02908 -0.0831299 0)
(0.018925 -0.120555 0)
(0.00759923 -0.158497 0)
(-0.0118158 -0.204457 0)
(-0.0242386 -0.286507 0)
(-0.0558438 -0.411026 0)
(-0.00613749 -0.401902 0)
(0.00987854 0.067236 0)
(0.0290322 0.170699 0)
(0.0443596 0.222248 0)
(0.0569034 0.241345 0)
(0.0681985 0.236418 0)
(0.0778869 0.213056 0)
(0.0851094 0.178763 0)
(0.0895652 0.140422 0)
(0.0913308 0.102262 0)
(0.090706 0.0658258 0)
(0.0880207 0.0309777 0)
(0.0829715 -0.00330027 0)
(0.0754569 -0.0375422 0)
(0.0657646 -0.0723236 0)
(0.0525125 -0.107449 0)
(0.0375786 -0.142798 0)
(0.0131356 -0.184285 0)
(8.26071e-05 -0.263268 0)
(-0.0447965 -0.406726 0)
(0.00276594 -0.436279 0)
(0.0069301 0.0493974 0)
(0.0293671 0.148974 0)
(0.051118 0.203657 0)
(0.0699989 0.224577 0)
(0.0874773 0.22172 0)
(0.103174 0.201562 0)
(0.115846 0.170967 0)
(0.124813 0.136076 0)
(0.129986 0.100878 0)
(0.131608 0.0670497 0)
(0.129944 0.034842 0)
(0.12502 0.00343045 0)
(0.116388 -0.0274658 0)
(0.104656 -0.0587046 0)
(0.0875606 -0.0903285 0)
(0.0683693 -0.122947 0)
(0.0383029 -0.160868 0)
(0.0238633 -0.237168 0)
(-0.0344382 -0.398973 0)
(0.0134755 -0.464436 0)
(0.00238719 0.0346267 0)
(0.023643 0.123904 0)
(0.0509635 0.179961 0)
(0.076699 0.202962 0)
(0.101368 0.202652 0)
(0.124254 0.18625 0)
(0.143711 0.160193 0)
(0.158522 0.129761 0)
(0.16827 0.0985683 0)
(0.173161 0.0683018 0)
(0.173137 0.0395593 0)
(0.168908 0.0119353 0)
(0.159071 -0.0149126 0)
(0.145337 -0.0417182 0)
(0.124031 -0.0687615 0)
(0.100488 -0.097564 0)
(0.0646303 -0.13272 0)
(0.0470109 -0.207464 0)
(-0.0227027 -0.387088 0)
(0.0285337 -0.485562 0)
(-0.00342619 0.0286136 0)
(0.0100733 0.101503 0)
(0.0371159 0.148704 0)
(0.0689848 0.169472 0)
(0.101883 0.170693 0)
(0.133607 0.158402 0)
(0.161609 0.137967 0)
(0.184158 0.113562 0)
(0.20021 0.0882737 0)
(0.210136 0.0636309 0)
(0.213061 0.0403791 0)
(0.210808 0.0184008 0)
(0.200542 -0.00267877 0)
(0.185909 -0.0233165 0)
(0.161091 -0.0439834 0)
(0.134469 -0.0677458 0)
(0.092934 -0.101697 0)
(0.0698792 -0.180017 0)
(-0.00436592 -0.370055 0)
(0.0521621 -0.491642 0)
(-0.0140117 0.0185174 0)
(-0.00751596 0.0881761 0)
(0.0192212 0.124197 0)
(0.056458 0.137324 0)
(0.0976162 0.136917 0)
(0.138003 0.127735 0)
(0.174261 0.113077 0)
(0.20411 0.0952978 0)
(0.226008 0.0768241 0)
(0.241104 0.0586741 0)
(0.247139 0.0418006 0)
(0.248055 0.0261056 0)
(0.238715 0.0117413 0)
(0.226897 -0.00205049 0)
(0.201895 -0.0160911 0)
(0.177908 -0.0350276 0)
(0.133557 -0.067806 0)
(0.107842 -0.146003 0)
(0.0374731 -0.326119 0)
(0.0923678 -0.455871 0)
(-0.106019 0.082418 0)
(-0.0777598 0.068991 0)
(-0.0485679 0.0733704 0)
(0.00378195 0.0778907 0)
(0.0572993 0.0782249 0)
(0.110034 0.0739609 0)
(0.157205 0.0666255 0)
(0.19957 0.0572206 0)
(0.231683 0.0475443 0)
(0.259837 0.0378874 0)
(0.275565 0.0292197 0)
(0.29072 0.0212332 0)
(0.291072 0.0144753 0)
(0.295182 0.00809183 0)
(0.278878 0.0011236 0)
(0.271662 -0.0100139 0)
(0.232349 -0.0355688 0)
(0.218143 -0.0954194 0)
(0.150208 -0.229723 0)
(0.170672 -0.341455 0)
(0.129969 0.103745 0)
(0.15832 0.0752281 0)
(0.212165 0.0532279 0)
(0.270673 0.041623 0)
(0.323249 0.0359133 0)
(0.375692 0.0319488 0)
(0.420288 0.0289166 0)
(0.465607 0.0255811 0)
(0.498704 0.022903 0)
(0.533954 0.0197106 0)
(0.553393 0.0175477 0)
(0.579203 0.0146098 0)
(0.58534 0.0131649 0)
(0.603679 0.010346 0)
(0.595099 0.00938362 0)
(0.6036 0.00499989 0)
(0.567791 8.92849e-05 0)
(0.547613 -0.0183159 0)
(0.435691 -0.0504144 0)
(0.336754 -0.101386 0)
)
;

boundaryField
{
    movingWall
    {
        type            fixedValue;
        value           uniform (1 0 0);
    }
    fixedWalls
    {
        type            noSlip;
    }
    frontAndBack
    {
        type            empty;
    }
}


// ************************************************************************* //
