/*--------------------------------*- C++ -*----------------------------------*\
| =========                 |                                                 |
| \\      /  F ield         | OpenFOAM: The Open Source CFD Toolbox           |
|  \\    /   O peration     | Version:  2212                                  |
|   \\  /    A nd           | Website:  www.openfoam.com                      |
|    \\/     M anipulation  |                                                 |
\*---------------------------------------------------------------------------*/
FoamFile
{
    version     2.0;
    format      ascii;
    arch        "LSB;label=32;scalar=64";
    class       surfaceScalarField;
    location    "6.2";
    object      phi;
}
// * * * * * * * * * * * * * * * * * * * * * * * * * * * * * * * * * * * * * //

dimensions      [0 3 -1 0 0 0 0];

oriented        oriented;

internalField   nonuniform List<scalar> 
760
(
1.5587e-07
-1.5583e-07
2.931e-07
-1.37231e-07
3.09319e-07
-1.62204e-08
1.83013e-07
1.26306e-07
-1.20809e-07
3.03822e-07
-6.65992e-07
5.45183e-07
-1.48457e-06
8.18579e-07
-2.48927e-06
1.0047e-06
-3.47809e-06
9.88816e-07
-4.2179e-06
7.3981e-07
-4.54182e-06
3.23926e-07
-4.35237e-06
-1.89453e-07
-3.59367e-06
-7.587e-07
-2.38015e-06
-1.21352e-06
-9.42189e-07
-1.43796e-06
3.45112e-07
-1.2873e-06
1.08775e-06
-7.42637e-07
1.03187e-06
5.58837e-08
4.60589e-07
5.71276e-07
4.6059e-07
1.24618e-07
-2.80448e-07
7.38097e-08
-8.64235e-08
-2.97776e-07
3.55365e-07
-1.07912e-06
9.07647e-07
-2.31506e-06
1.53977e-06
-3.92505e-06
2.15517e-06
-5.6585e-06
2.55203e-06
-7.2022e-06
2.5484e-06
-8.33162e-06
2.11824e-06
-8.93702e-06
1.34521e-06
-8.97146e-06
3.58368e-07
-8.4124e-06
-7.48516e-07
-7.29113e-06
-1.87996e-06
-5.64103e-06
-2.86362e-06
-3.60624e-06
-3.47275e-06
-1.49169e-06
-3.40186e-06
1.7674e-07
-2.41107e-06
8.57545e-07
-6.24923e-07
5.2516e-07
9.03659e-07
9.8575e-07
-1.27947e-07
-1.52502e-07
-6.34263e-07
4.19892e-07
-1.62461e-06
1.34571e-06
-3.13979e-06
2.42283e-06
-5.05401e-06
3.45399e-06
-7.06804e-06
4.1692e-06
-8.86667e-06
4.35066e-06
-1.02699e-05
3.95162e-06
-1.1226e-05
3.07438e-06
-1.17274e-05
1.84655e-06
-1.17219e-05
3.5286e-07
-1.12637e-05
-1.2067e-06
-1.03321e-05
-2.8115e-06
-8.87304e-06
-4.32272e-06
-6.86657e-06
-5.47922e-06
-4.402e-06
-5.86643e-06
-1.87892e-06
-4.93415e-06
-8.71466e-08
-2.41669e-06
2.94403e-07
5.22108e-07
1.28015e-06
-5.00404e-07
3.47902e-07
-1.55923e-06
1.47872e-06
-3.11735e-06
2.90384e-06
-5.07731e-06
4.38278e-06
-7.17913e-06
5.55581e-06
-9.11531e-06
6.10538e-06
-1.06837e-05
5.91907e-06
-1.18418e-05
5.10972e-06
-1.26177e-05
3.85022e-06
-1.30459e-05
2.27483e-06
-1.31113e-05
4.182e-07
-1.28724e-05
-1.44557e-06
-1.22907e-05
-3.3932e-06
-1.12643e-05
-5.34909e-06
-9.66248e-06
-7.08108e-06
-7.36046e-06
-8.16846e-06
-4.39679e-06
-7.89782e-06
-1.37803e-06
-5.43545e-06
1.2043e-07
-9.76353e-07
1.40058e-06
-8.61268e-07
1.20917e-06
-2.35968e-06
2.97713e-06
-4.22887e-06
4.77302e-06
-6.27408e-06
6.428e-06
-8.21449e-06
7.49621e-06
-9.82755e-06
7.71844e-06
-1.10366e-05
7.12807e-06
-1.1868e-05
5.94116e-06
-1.23837e-05
4.36594e-06
-1.26564e-05
2.54756e-06
-1.2777e-05
5.38747e-07
-1.2732e-05
-1.49058e-06
-1.25125e-05
-3.61271e-06
-1.20394e-05
-5.82214e-06
-1.11265e-05
-7.99399e-06
-9.48576e-06
-9.8092e-06
-6.81786e-06
-1.05657e-05
-3.22139e-06
-9.03192e-06
-2.61411e-07
-3.93634e-06
1.13917e-06
-1.08588e-06
2.29505e-06
-2.78162e-06
4.67287e-06
-4.67333e-06
6.66473e-06
-6.52933e-06
8.28399e-06
-8.12549e-06
9.09238e-06
-9.33082e-06
8.92377e-06
-1.01412e-05
7.93844e-06
-1.06217e-05
6.42166e-06
-1.08626e-05
4.60686e-06
-1.09638e-05
2.64874e-06
-1.10467e-05
6.21658e-07
-1.10979e-05
-1.43943e-06
-1.11333e-05
-3.57727e-06
-1.11239e-05
-5.8315e-06
-1.09162e-05
-8.20176e-06
-1.01829e-05
-1.05425e-05
-8.4298e-06
-1.23188e-05
-5.24128e-06
-1.22204e-05
-1.15816e-06
-8.01947e-06
-1.89834e-08
-1.10968e-06
3.40473e-06
-2.75582e-06
6.31901e-06
-4.4518e-06
8.36071e-06
-5.98596e-06
9.81815e-06
-7.1983e-06
1.03047e-05
-8.02639e-06
9.75186e-06
-8.50786e-06
8.41991e-06
-8.72967e-06
6.64347e-06
-8.79541e-06
4.6726e-06
-8.80207e-06
2.65541e-06
-8.83213e-06
6.51711e-07
-8.90397e-06
-1.36758e-06
-9.03751e-06
-3.44374e-06
-9.24421e-06
-5.6248e-06
-9.46765e-06
-7.97831e-06
-9.47658e-06
-1.05336e-05
-8.75208e-06
-1.30433e-05
-6.53621e-06
-1.44363e-05
-2.423e-06
-1.21327e-05
-2.44199e-06
-9.35077e-07
4.33981e-06
-2.34556e-06
7.72949e-06
-3.73173e-06
9.74688e-06
-4.91012e-06
1.09965e-05
-5.77977e-06
1.11744e-05
-6.32376e-06
1.02958e-05
-6.59915e-06
8.6953e-06
-6.69693e-06
6.74124e-06
-6.71317e-06
4.68883e-06
-6.72088e-06
2.66313e-06
-6.75579e-06
6.86613e-07
-6.83484e-06
-1.28853e-06
-6.97903e-06
-3.29954e-06
-7.21895e-06
-5.38488e-06
-7.57186e-06
-7.62541e-06
-7.94709e-06
-1.01583e-05
-7.93498e-06
-1.30554e-05
-6.71765e-06
-1.56536e-05
-3.5866e-06
-1.52637e-05
-6.02858e-06
-6.24811e-07
4.96462e-06
-1.68693e-06
8.79161e-06
-2.71973e-06
1.07797e-05
-3.55856e-06
1.18354e-05
-4.14786e-06
1.17637e-05
-4.4977e-06
1.06457e-05
-4.66691e-06
8.86451e-06
-4.73389e-06
6.80822e-06
-4.77093e-06
4.72588e-06
-4.82156e-06
2.71376e-06
-4.8958e-06
7.60848e-07
-4.99997e-06
-1.18436e-06
-5.14391e-06
-3.15559e-06
-5.35624e-06
-5.17256e-06
-5.69205e-06
-7.2896e-06
-6.16504e-06
-9.68534e-06
-6.55759e-06
-1.26628e-05
-6.12889e-06
-1.60823e-05
-3.92429e-06
-1.74683e-05
-9.95288e-06
-2.32578e-07
5.1972e-06
-8.93232e-07
9.45226e-06
-1.56477e-06
1.14512e-05
-2.09433e-06
1.23649e-05
-2.45419e-06
1.21235e-05
-2.66858e-06
1.08601e-05
-2.78567e-06
8.9816e-06
-2.85872e-06
6.88127e-06
-2.93236e-06
4.79952e-06
-3.02856e-06
2.80996e-06
-3.15009e-06
8.82372e-07
-3.29652e-06
-1.03793e-06
-3.46797e-06
-2.98414e-06
-3.67663e-06
-4.9639e-06
-3.97309e-06
-6.99315e-06
-4.43961e-06
-9.21883e-06
-5.02401e-06
-1.20784e-05
-5.12469e-06
-1.59817e-05
-3.55901e-06
-1.9034e-05
-1.35119e-05
1.63716e-07
5.03348e-06
-6.99686e-08
9.68594e-06
-4.02895e-07
1.17842e-05
-6.53899e-07
1.26159e-05
-8.08857e-07
1.22785e-05
-8.9888e-07
1.09501e-05
-9.63364e-07
9.04608e-06
-1.03421e-06
6.95211e-06
-1.128e-06
4.89331e-06
-1.2525e-06
2.93447e-06
-1.41025e-06
1.04012e-06
-1.60338e-06
-8.44796e-07
-1.83042e-06
-2.7571e-06
-2.08916e-06
-4.70516e-06
-2.40703e-06
-6.67528e-06
-2.87579e-06
-8.75006e-06
-3.56036e-06
-1.13939e-05
-4.02586e-06
-1.55162e-05
-3.02605e-06
-2.00338e-05
-1.65379e-05
5.01723e-07
4.53176e-06
6.99799e-07
9.48787e-06
7.43155e-07
1.17408e-05
7.78914e-07
1.25802e-05
8.23938e-07
1.22335e-05
8.5287e-07
1.09212e-05
8.46003e-07
9.05295e-06
7.95119e-07
7.003e-06
7.01168e-07
4.98726e-06
5.65917e-07
3.06972e-06
3.84245e-07
1.22179e-06
1.49966e-07
-6.10516e-07
-1.38567e-07
-2.46857e-06
-4.88012e-07
-4.35571e-06
-9.02246e-07
-6.26105e-06
-1.42516e-06
-8.22715e-06
-2.20418e-06
-1.06148e-05
-2.95424e-06
-1.47661e-05
-2.46109e-06
-2.0527e-05
-1.8999e-05
7.58323e-07
3.77344e-06
1.35724e-06
8.88895e-06
1.75109e-06
1.13469e-05
2.0816e-06
1.22497e-05
2.35566e-06
1.19594e-05
2.54305e-06
1.07338e-05
2.63561e-06
8.9604e-06
2.64404e-06
6.99456e-06
2.58244e-06
5.04886e-06
2.45742e-06
3.19474e-06
2.26152e-06
1.41769e-06
1.98068e-06
-3.29677e-07
1.6154e-06
-2.10329e-06
1.16069e-06
-3.901e-06
6.12141e-07
-5.7125e-06
-8.16931e-08
-7.53331e-06
-9.55486e-07
-9.74105e-06
-1.91862e-06
-1.3803e-05
-1.92498e-06
-2.05206e-05
-2.0924e-05
8.73646e-07
2.89979e-06
1.81554e-06
7.94705e-06
2.55938e-06
1.06031e-05
3.20236e-06
1.16067e-05
3.75191e-06
1.14098e-05
4.16475e-06
1.03209e-05
4.425e-06
8.70016e-06
4.54661e-06
6.87295e-06
4.55258e-06
5.0429e-06
4.45811e-06
3.2892e-06
4.26122e-06
1.61458e-06
3.92947e-06
2.07564e-09
3.48331e-06
-1.65713e-06
2.89713e-06
-3.31483e-06
2.17203e-06
-4.9874e-06
1.32679e-06
-6.68807e-06
2.70728e-07
-8.685e-06
-9.56053e-07
-1.25762e-05
-1.42625e-06
-2.00504e-05
-2.23503e-05
8.09524e-07
2.09026e-06
1.96087e-06
6.79571e-06
3.00673e-06
9.55725e-06
3.98317e-06
1.06303e-05
4.86319e-06
1.05298e-05
5.58074e-06
9.60338e-06
6.09667e-06
8.18423e-06
6.41394e-06
6.55568e-06
6.55345e-06
4.90339e-06
6.53325e-06
3.3094e-06
6.3517e-06
1.79613e-06
6.00621e-06
3.47569e-07
5.46372e-06
-1.11464e-06
4.73162e-06
-2.58273e-06
3.80196e-06
-4.05774e-06
2.70361e-06
-5.58972e-06
1.39658e-06
-7.37796e-06
-1.51562e-07
-1.10281e-05
-9.10994e-07
-1.9291e-05
-2.32613e-05
5.80011e-07
1.51025e-06
1.76629e-06
5.60942e-06
3.10913e-06
8.21441e-06
4.46458e-06
9.27481e-06
5.73517e-06
9.25924e-06
6.82227e-06
8.51627e-06
7.66046e-06
7.34604e-06
8.23706e-06
5.97908e-06
8.56447e-06
4.57598e-06
8.65949e-06
3.21438e-06
8.52891e-06
1.9267e-06
8.16995e-06
7.06532e-07
7.53859e-06
-4.83278e-07
6.65212e-06
-1.69627e-06
5.49786e-06
-2.90348e-06
4.11677e-06
-4.20863e-06
2.58194e-06
-5.84313e-06
9.64334e-07
-9.41045e-06
-1.41086e-07
-1.81855e-05
-2.34023e-05
1.53519e-07
1.35673e-06
1.04554e-06
4.7174e-06
2.52781e-06
6.73214e-06
4.25524e-06
7.54738e-06
5.98262e-06
7.53186e-06
7.52226e-06
6.97663e-06
8.77147e-06
6.09682e-06
9.70049e-06
5.05006e-06
1.03044e-05
3.97205e-06
1.05948e-05
2.924e-06
1.05776e-05
1.9439e-06
1.02585e-05
1.02567e-06
9.59165e-06
1.83547e-07
8.59877e-06
-7.03389e-07
7.27017e-06
-1.57488e-06
5.65773e-06
-2.59618e-06
3.92214e-06
-4.10754e-06
2.24668e-06
-7.73498e-06
6.55398e-07
-1.65943e-05
-2.27469e-05
-5.1849e-07
1.87523e-06
2.02706e-07
3.9962e-06
1.76411e-06
5.17074e-06
3.83449e-06
5.477e-06
5.99695e-06
5.3694e-06
7.96474e-06
5.00885e-06
9.60126e-06
4.4603e-06
1.0865e-05
3.7863e-06
1.17385e-05
3.09854e-06
1.22381e-05
2.42446e-06
1.23673e-05
1.81471e-06
1.21459e-05
1.24699e-06
1.15979e-05
7.31566e-07
1.06941e-05
2.00429e-07
9.43909e-06
-3.19863e-07
7.9059e-06
-1.06299e-06
6.28039e-06
-2.48203e-06
4.46336e-06
-5.91796e-06
2.05834e-06
-1.41892e-05
-2.06886e-05
-4.1808e-06
6.05603e-06
-3.64348e-06
3.45888e-06
-1.24485e-06
2.7721e-06
1.55905e-06
2.6731e-06
4.30473e-06
2.62372e-06
6.84541e-06
2.46817e-06
9.06763e-06
2.23809e-06
1.0911e-05
1.94288e-06
1.23572e-05
1.65235e-06
1.34332e-05
1.34849e-06
1.4156e-05
1.09189e-06
1.45704e-05
8.32594e-07
1.46641e-05
6.37842e-07
1.44464e-05
4.182e-07
1.39123e-05
2.14217e-07
1.30776e-05
-2.2835e-07
1.19307e-05
-1.33506e-06
1.01153e-05
-4.10254e-06
5.63901e-06
-9.713e-06
-1.50496e-05
6.05603e-06
9.51491e-06
1.2287e-05
1.49601e-05
1.75838e-05
2.0052e-05
2.22901e-05
2.4233e-05
2.58853e-05
2.72338e-05
2.83257e-05
2.91583e-05
2.97961e-05
3.02143e-05
3.04286e-05
3.02002e-05
2.88651e-05
2.47626e-05
1.50496e-05
)
;

boundaryField
{
    movingWall
    {
        type            calculated;
        value           uniform 0;
    }
    fixedWalls
    {
        type            calculated;
        value           uniform 0;
    }
    frontAndBack
    {
        type            empty;
        value           nonuniform List<scalar> 0();
    }
}


// ************************************************************************* //
