/*--------------------------------*- C++ -*----------------------------------*\
| =========                 |                                                 |
| \\      /  F ield         | OpenFOAM: The Open Source CFD Toolbox           |
|  \\    /   O peration     | Version:  2212                                  |
|   \\  /    A nd           | Website:  www.openfoam.com                      |
|    \\/     M anipulation  |                                                 |
\*---------------------------------------------------------------------------*/
FoamFile
{
    version     2.0;
    format      ascii;
    arch        "LSB;label=32;scalar=64";
    class       volScalarField;
    location    "6.2";
    object      T;
}
// * * * * * * * * * * * * * * * * * * * * * * * * * * * * * * * * * * * * * //

dimensions      [0 0 0 1 0 0 0];

internalField   nonuniform List<scalar> 
400
(
0.715445
0.724274
0.742009
0.767868
0.797278
0.823037
0.840292
0.849233
0.853331
0.855803
0.857873
0.859822
0.86172
0.863428
0.864536
0.864325
0.861608
0.854866
0.844506
0.83596
0.727279
0.737817
0.758826
0.788457
0.818865
0.840139
0.849827
0.853199
0.854695
0.8558
0.857245
0.859435
0.862471
0.866085
0.869327
0.870693
0.867901
0.859092
0.846566
0.837229
0.745547
0.759311
0.784818
0.815158
0.838559
0.848798
0.850374
0.849062
0.846849
0.845138
0.845162
0.847773
0.853005
0.860625
0.869047
0.875811
0.876757
0.867556
0.850371
0.839529
0.76336
0.780483
0.80811
0.833174
0.84542
0.845397
0.839783
0.832034
0.823994
0.818018
0.815751
0.818657
0.826424
0.839245
0.855302
0.871776
0.883218
0.881933
0.861895
0.845703
0.777286
0.796611
0.822955
0.839506
0.840634
0.831332
0.81752
0.8018
0.787236
0.776602
0.771781
0.774417
0.784121
0.801372
0.824747
0.851763
0.877304
0.892612
0.883896
0.857962
0.786999
0.806889
0.82951
0.836783
0.827799
0.80966
0.787392
0.764198
0.744064
0.729665
0.722823
0.724724
0.735357
0.755077
0.783171
0.817854
0.855207
0.887856
0.901833
0.876421
0.793248
0.812243
0.82996
0.828608
0.810953
0.784963
0.755423
0.726564
0.702682
0.686116
0.678269
0.679614
0.690369
0.710764
0.740774
0.779582
0.824406
0.869213
0.903001
0.902449
0.796947
0.814204
0.827124
0.818702
0.794026
0.761561
0.726476
0.693863
0.667897
0.650464
0.642358
0.643483
0.653885
0.673704
0.703384
0.743349
0.792496
0.845738
0.892608
0.916708
0.798868
0.814042
0.822874
0.809179
0.779294
0.742129
0.703368
0.668562
0.641596
0.623929
0.615821
0.616881
0.6269
0.645767
0.673856
0.712437
0.762826
0.822196
0.878805
0.912323
0.799552
0.812749
0.818771
0.802024
0.768953
0.728781
0.687742
0.651628
0.624062
0.606166
0.597868
0.598719
0.60841
0.626588
0.653109
0.689131
0.737941
0.800634
0.866706
0.909243
0.799351
0.810872
0.815309
0.797419
0.762994
0.721508
0.679604
0.643006
0.615082
0.596778
0.587942
0.588221
0.597365
0.61492
0.640205
0.673544
0.718998
0.781999
0.855256
0.907213
0.798479
0.808728
0.812843
0.79595
0.762318
0.721256
0.679668
0.643128
0.614884
0.595952
0.586289
0.585648
0.593843
0.610433
0.634438
0.665176
0.706305
0.767401
0.846254
0.906169
0.796964
0.806347
0.810997
0.79666
0.765625
0.726623
0.686662
0.651107
0.623124
0.603859
0.593427
0.591664
0.598471
0.61343
0.635526
0.663482
0.699676
0.756612
0.839013
0.906084
0.794709
0.80364
0.809496
0.799245
0.772916
0.737955
0.701163
0.667655
0.640557
0.621229
0.610045
0.606853
0.611728
0.624223
0.643433
0.66784
0.698757
0.750306
0.834371
0.906832
0.791561
0.800469
0.807461
0.801513
0.780971
0.75163
0.719687
0.689848
0.665049
0.646715
0.635417
0.631006
0.633636
0.642921
0.658123
0.678162
0.703605
0.748225
0.831822
0.908393
0.787704
0.796787
0.805102
0.803759
0.790155
0.768101
0.74268
0.717973
0.69666
0.680149
0.66911
0.663569
0.66353
0.668856
0.679082
0.693653
0.713294
0.749808
0.831646
0.910849
0.784053
0.792827
0.801032
0.802527
0.79492
0.78047
0.762713
0.744738
0.728611
0.715536
0.706007
0.700257
0.6981
0.699676
0.704993
0.713899
0.728457
0.75814
0.836337
0.914989
0.781426
0.790345
0.799365
0.802945
0.800382
0.792901
0.782561
0.771265
0.760402
0.750938
0.743275
0.737767
0.734444
0.733447
0.735408
0.740004
0.751149
0.774511
0.845401
0.92024
0.752324
0.787033
0.79027
0.792712
0.791734
0.788979
0.78509
0.781231
0.777538
0.774879
0.773006
0.772393
0.772914
0.774454
0.778006
0.782356
0.793299
0.812225
0.866862
0.929225
0.825397
0.847063
0.859096
0.866788
0.871448
0.874719
0.876874
0.878912
0.880507
0.882438
0.884128
0.886301
0.888261
0.890739
0.893029
0.896099
0.899743
0.907245
0.921686
0.947791
)
;

boundaryField
{
    movingWall
    {
        type            fixedValue;
        value           uniform 1;
    }
    fixedWalls
    {
        type            zeroGradient;
    }
    frontAndBack
    {
        type            empty;
    }
}


// ************************************************************************* //
