/*--------------------------------*- C++ -*----------------------------------*\
| =========                 |                                                 |
| \\      /  F ield         | OpenFOAM: The Open Source CFD Toolbox           |
|  \\    /   O peration     | Version:  2212                                  |
|   \\  /    A nd           | Website:  www.openfoam.com                      |
|    \\/     M anipulation  |                                                 |
\*---------------------------------------------------------------------------*/
FoamFile
{
    version     2.0;
    format      ascii;
    arch        "LSB;label=32;scalar=64";
    class       volScalarField;
    location    "0.3";
    object      T;
}
// * * * * * * * * * * * * * * * * * * * * * * * * * * * * * * * * * * * * * //

dimensions      [0 0 0 1 0 0 0];

internalField   nonuniform List<scalar> 
400
(
1e-08
1e-08
1e-08
1e-08
1e-08
1e-08
1e-08
1e-08
1e-08
1e-08
1e-08
1e-08
1.00001e-08
1.00003e-08
1.00011e-08
1.00039e-08
1.00112e-08
1.00224e-08
1.00255e-08
1.00134e-08
1e-08
1e-08
1e-08
1e-08
1e-08
1e-08
1e-08
1e-08
1e-08
1e-08
1e-08
1.00001e-08
1.00007e-08
1.00038e-08
1.00172e-08
1.00645e-08
1.01893e-08
1.03867e-08
1.04392e-08
1.02127e-08
1e-08
1e-08
1e-08
1e-08
1e-08
1e-08
1e-08
1e-08
1e-08
1e-08
1.00003e-08
1.00017e-08
1.00104e-08
1.00554e-08
1.02577e-08
1.10012e-08
1.30356e-08
1.63629e-08
1.72717e-08
1.33089e-08
1e-08
1e-08
1e-08
1e-08
1e-08
1e-08
1e-08
1e-08
1.00001e-08
1.00004e-08
1.00031e-08
1.00212e-08
1.01311e-08
1.07247e-08
1.34814e-08
2.39495e-08
5.35509e-08
1.03648e-07
1.18419e-07
5.71888e-08
1e-08
1e-08
1e-08
1e-08
1e-08
1e-08
1e-08
1.00001e-08
1.00006e-08
1.00046e-08
1.00343e-08
1.02383e-08
1.15131e-08
1.85793e-08
5.22486e-08
1.83416e-07
5.64485e-07
1.23071e-06
1.45045e-06
6.21376e-07
1e-08
1e-08
1e-08
1e-08
1e-08
1e-08
1.00001e-08
1.00008e-08
1.00058e-08
1.00455e-08
1.0345e-08
1.24453e-08
2.58162e-08
1.01249e-07
4.66703e-07
1.91464e-06
6.20365e-06
1.39224e-05
1.68387e-05
7.13139e-06
1e-08
1e-08
1e-08
1e-08
1e-08
1.00002e-08
1.0001e-08
1.00068e-08
1.00518e-08
1.04112e-08
1.31638e-08
3.26956e-08
1.58228e-07
8.72265e-07
4.35429e-06
1.82382e-05
5.97514e-05
0.000136165
0.000169678
7.35394e-05
1e-08
1e-08
1e-08
1.00001e-08
1.00004e-08
1.00016e-08
1.00085e-08
1.00554e-08
1.04231e-08
1.33803e-08
3.61487e-08
1.98142e-07
1.2392e-06
7.14794e-06
3.58156e-05
0.000149359
0.000487338
0.0011164
0.0014372
0.000659682
1.00002e-08
1.00001e-08
1.00002e-08
1.00007e-08
1.00029e-08
1.0013e-08
1.00656e-08
1.04155e-08
1.31342e-08
3.49196e-08
2.01935e-07
1.38227e-06
8.88947e-06
5.08898e-05
0.000250935
0.00102499
0.00327422
0.00742225
0.00984153
0.00498902
1.00024e-08
1.00007e-08
1.00013e-08
1.00053e-08
1.00229e-08
1.00984e-08
1.04722e-08
1.28415e-08
3.07621e-08
1.72038e-07
1.23928e-06
8.65521e-06
5.48324e-05
0.00030607
0.00146163
0.00573794
0.0175329
0.0383325
0.0515238
0.0302338
1.00279e-08
1.00071e-08
1.00097e-08
1.00411e-08
1.01745e-08
1.07176e-08
1.31897e-08
2.76081e-08
1.3112e-07
9.21447e-07
6.73497e-06
4.60167e-05
0.000282615
0.0015155
0.00687684
0.02534
0.071732
0.145251
0.190772
0.134746
1.02859e-08
1.00739e-08
1.00724e-08
1.031e-08
1.1298e-08
1.50769e-08
3.04032e-08
1.08808e-07
6.23101e-07
4.34276e-06
3.05867e-05
0.000200762
0.00117852
0.00597685
0.0251754
0.0841913
0.211167
0.373468
0.454559
0.392691
1.21928e-08
1.08342e-08
9.09194e-09
1.22868e-08
1.95432e-08
4.53027e-08
1.36165e-07
5.19709e-07
2.67999e-06
1.69573e-05
0.000111494
0.00068931
0.00379666
0.0178089
0.0676346
0.196499
0.412303
0.596087
0.64609
0.679415
8.68433e-09
3.07881e-07
1.69739e-07
2.20409e-08
7.31488e-08
2.54531e-07
7.89129e-07
2.53809e-06
1.01746e-05
5.32077e-05
0.00031053
0.00175073
0.00879833
0.0370906
0.123209
0.302229
0.512618
0.579606
0.571019
0.719819
-1.4058e-06
-1.42483e-05
-4.69084e-06
6.20424e-07
9.15322e-07
1.81967e-06
4.99601e-06
1.30774e-05
3.69962e-05
0.000136553
0.000635575
0.00309185
0.0137611
0.0515623
0.151081
0.321286
0.455429
0.422015
0.453507
0.647144
1.89731e-05
0.00026439
6.7602e-05
-1.25242e-05
-7.44419e-06
9.45617e-06
3.36533e-05
7.64536e-05
0.000156913
0.00035027
0.00103074
0.00381017
0.014428
0.04858
0.132292
0.26463
0.347755
0.31171
0.434176
0.664689
-0.00189026
-0.00257181
-0.000558512
0.000180255
0.000223855
0.000185969
0.000259294
0.000500196
0.000891452
0.0013998
0.00215906
0.00410612
0.0107507
0.0316269
0.0841484
0.172535
0.230055
0.217385
0.384705
0.65331
0.0226997
0.0128901
0.00348953
-0.00100035
-0.00193524
-0.000953969
0.0013346
0.00446941
0.00797611
0.0114901
0.0143749
0.0164649
0.0178259
0.0224563
0.0391286
0.0792958
0.123422
0.153103
0.371871
0.664469
-0.155434
-0.032647
-0.0164703
0.00112038
0.0179291
0.0353171
0.0522037
0.068905
0.0838026
0.0986321
0.110503
0.121931
0.127597
0.130818
0.129644
0.139389
0.166423
0.230377
0.449632
0.713076
0.182839
0.263076
0.317884
0.358974
0.39072
0.418629
0.441331
0.463812
0.481512
0.500439
0.514646
0.530635
0.541395
0.553903
0.55972
0.571569
0.57863
0.609148
0.669491
0.778516
)
;

boundaryField
{
    movingWall
    {
        type            fixedValue;
        value           uniform 1;
    }
    fixedWalls
    {
        type            zeroGradient;
    }
    frontAndBack
    {
        type            empty;
    }
}


// ************************************************************************* //
