/*--------------------------------*- C++ -*----------------------------------*\
| =========                 |                                                 |
| \\      /  F ield         | OpenFOAM: The Open Source CFD Toolbox           |
|  \\    /   O peration     | Version:  2212                                  |
|   \\  /    A nd           | Website:  www.openfoam.com                      |
|    \\/     M anipulation  |                                                 |
\*---------------------------------------------------------------------------*/
FoamFile
{
    version     2.0;
    format      ascii;
    arch        "LSB;label=32;scalar=64";
    class       surfaceScalarField;
    location    "7.1";
    object      phi;
}
// * * * * * * * * * * * * * * * * * * * * * * * * * * * * * * * * * * * * * //

dimensions      [0 3 -1 0 0 0 0];

oriented        oriented;

internalField   nonuniform List<scalar> 
760
(
1.55991e-07
-1.56002e-07
2.934e-07
-1.3741e-07
3.09702e-07
-1.63024e-08
1.83395e-07
1.26307e-07
-1.20523e-07
3.03918e-07
-6.65958e-07
5.45435e-07
-1.48498e-06
8.19019e-07
-2.49019e-06
1.00521e-06
-3.47939e-06
9.89201e-07
-4.21931e-06
7.39919e-07
-4.54307e-06
3.23757e-07
-4.35312e-06
-1.89949e-07
-3.59374e-06
-7.59381e-07
-2.3795e-06
-1.21424e-06
-9.40958e-07
-1.43854e-06
3.46616e-07
-1.28757e-06
1.089e-06
-7.42386e-07
1.03256e-06
5.64384e-08
4.60824e-07
5.71739e-07
4.60824e-07
1.24866e-07
-2.80868e-07
7.42685e-08
-8.68149e-08
-2.97347e-07
3.55313e-07
-1.079e-06
9.07963e-07
-2.31557e-06
1.54049e-06
-3.92642e-06
2.15628e-06
-5.6607e-06
2.55331e-06
-7.20499e-06
2.5495e-06
-8.33469e-06
2.1189e-06
-8.94006e-06
1.34529e-06
-8.9742e-06
3.57902e-07
-8.4146e-06
-7.4955e-07
-7.29259e-06
-1.8814e-06
-5.64163e-06
-2.8652e-06
-3.60602e-06
-3.47415e-06
-1.49087e-06
-3.40272e-06
1.77872e-07
-2.41113e-06
8.5837e-07
-6.2406e-07
5.25475e-07
9.04634e-07
9.86298e-07
-1.27748e-07
-1.5312e-07
-6.34075e-07
4.19512e-07
-1.62481e-06
1.34604e-06
-3.14078e-06
2.42394e-06
-5.05606e-06
3.45577e-06
-7.07114e-06
4.17136e-06
-8.87061e-06
4.35277e-06
-1.02744e-05
3.95331e-06
-1.12309e-05
3.0754e-06
-1.17324e-05
1.84675e-06
-1.17266e-05
3.52136e-07
-1.1268e-05
-1.20815e-06
-1.03358e-05
-2.8136e-06
-8.87582e-06
-4.32518e-06
-6.86832e-06
-5.48165e-06
-4.40272e-06
-5.86833e-06
-1.87883e-06
-4.93502e-06
-8.6723e-08
-2.41616e-06
2.94567e-07
5.23344e-07
1.28087e-06
-5.0048e-07
3.4736e-07
-1.55968e-06
1.47872e-06
-3.11862e-06
2.90498e-06
-5.0797e-06
4.38502e-06
-7.18272e-06
5.55879e-06
-9.11994e-06
6.10858e-06
-1.06892e-05
5.922e-06
-1.18479e-05
5.11204e-06
-1.26242e-05
3.85169e-06
-1.30527e-05
2.27523e-06
-1.31178e-05
4.17307e-07
-1.28786e-05
-1.44739e-06
-1.22963e-05
-3.39594e-06
-1.1269e-05
-5.35243e-06
-9.66611e-06
-7.08456e-06
-7.36288e-06
-8.17156e-06
-4.39794e-06
-7.89995e-06
-1.37806e-06
-5.43605e-06
1.20603e-07
-9.75319e-07
1.40147e-06
-8.6167e-07
1.20903e-06
-2.36088e-06
2.97793e-06
-4.23118e-06
4.77527e-06
-6.27764e-06
6.43149e-06
-8.21921e-06
7.50035e-06
-9.83323e-06
7.72261e-06
-1.1043e-05
7.13181e-06
-1.18751e-05
5.94415e-06
-1.23914e-05
4.36791e-06
-1.26644e-05
2.54823e-06
-1.27849e-05
5.37876e-07
-1.27396e-05
-1.49276e-06
-1.25194e-05
-3.6161e-06
-1.20455e-05
-5.82636e-06
-1.11315e-05
-7.9985e-06
-9.48964e-06
-9.81345e-06
-6.82039e-06
-1.05692e-05
-3.22233e-06
-9.03411e-06
-2.61275e-07
-3.93638e-06
1.14019e-06
-1.0866e-06
2.29563e-06
-2.78339e-06
4.67472e-06
-4.67633e-06
6.66821e-06
-6.53353e-06
8.28869e-06
-8.13076e-06
9.09757e-06
-9.33699e-06
8.92884e-06
-1.01482e-05
7.94301e-06
-1.06295e-05
6.42543e-06
-1.08711e-05
4.60949e-06
-1.09727e-05
2.64986e-06
-1.10558e-05
6.20957e-07
-1.11066e-05
-1.44195e-06
-1.11413e-05
-3.58141e-06
-1.11309e-05
-5.83674e-06
-1.0922e-05
-8.20738e-06
-1.01876e-05
-1.05478e-05
-8.4334e-06
-1.23234e-05
-5.24345e-06
-1.22241e-05
-1.15846e-06
-8.02137e-06
-1.82619e-08
-1.11058e-06
3.40621e-06
-2.75787e-06
6.32201e-06
-4.45502e-06
8.36536e-06
-5.99028e-06
9.82395e-06
-7.20359e-06
1.03109e-05
-8.03258e-06
9.75784e-06
-8.51498e-06
8.42541e-06
-8.73775e-06
6.6482e-06
-8.80441e-06
4.67616e-06
-8.8118e-06
2.65725e-06
-8.84214e-06
6.51295e-07
-8.9137e-06
-1.37039e-06
-9.04642e-06
-3.44869e-06
-9.25188e-06
-5.63127e-06
-9.47393e-06
-7.98533e-06
-9.48158e-06
-1.05402e-05
-8.75606e-06
-1.30489e-05
-6.5391e-06
-1.4441e-05
-2.42413e-06
-1.21363e-05
-2.44239e-06
-9.35967e-07
4.34217e-06
-2.34753e-06
7.73358e-06
-3.73473e-06
9.75256e-06
-4.91407e-06
1.10033e-05
-5.78462e-06
1.11814e-05
-6.32952e-06
1.03027e-05
-6.60592e-06
8.70181e-06
-6.70482e-06
6.7471e-06
-6.72214e-06
4.69348e-06
-6.73071e-06
2.66582e-06
-6.76603e-06
6.86612e-07
-6.84494e-06
-1.29147e-06
-6.98841e-06
-3.30522e-06
-7.22705e-06
-5.39264e-06
-7.57832e-06
-7.63407e-06
-7.95194e-06
-1.01666e-05
-7.93863e-06
-1.30622e-05
-6.72046e-06
-1.56592e-05
-3.58846e-06
-1.52683e-05
-6.03085e-06
-6.25527e-07
4.9677e-06
-1.68854e-06
8.79659e-06
-2.72217e-06
1.07862e-05
-3.56179e-06
1.18429e-05
-4.15187e-06
1.17715e-05
-4.50255e-06
1.06534e-05
-4.67272e-06
8.87198e-06
-4.74074e-06
6.81512e-06
-4.7788e-06
4.73154e-06
-4.83023e-06
2.71725e-06
-4.90492e-06
7.61307e-07
-5.00912e-06
-1.18728e-06
-5.1526e-06
-3.16174e-06
-5.36392e-06
-5.18131e-06
-5.69823e-06
-7.29976e-06
-6.16951e-06
-9.69529e-06
-6.56068e-06
-1.26711e-05
-6.13119e-06
-1.60887e-05
-3.92589e-06
-1.74736e-05
-9.95674e-06
-2.32974e-07
5.20068e-06
-8.94256e-07
9.45787e-06
-1.56638e-06
1.14583e-05
-2.0965e-06
1.2373e-05
-2.45694e-06
1.21319e-05
-2.67198e-06
1.08685e-05
-2.78981e-06
8.98981e-06
-2.86365e-06
6.88896e-06
-2.93803e-06
4.80591e-06
-3.03482e-06
2.81404e-06
-3.15675e-06
8.83239e-07
-3.30335e-06
-1.04068e-06
-3.47467e-06
-2.99042e-06
-3.68282e-06
-4.97316e-06
-3.97823e-06
-7.00434e-06
-4.44329e-06
-9.23023e-06
-5.02631e-06
-1.20881e-05
-5.12621e-06
-1.59888e-05
-3.56e-06
-1.90398e-05
-1.35167e-05
1.63744e-07
5.03693e-06
-7.02469e-08
9.69186e-06
-4.03486e-07
1.17916e-05
-6.54793e-07
1.26243e-05
-8.10078e-07
1.22872e-05
-9.0047e-07
1.09589e-05
-9.65343e-07
9.05468e-06
-1.03657e-06
6.96018e-06
-1.1307e-06
4.90005e-06
-1.25551e-06
2.93885e-06
-1.41354e-06
1.04127e-06
-1.60694e-06
-8.47283e-07
-1.83417e-06
-2.7632e-06
-2.0929e-06
-4.71443e-06
-2.41042e-06
-6.68682e-06
-2.87826e-06
-8.76239e-06
-3.56172e-06
-1.14046e-05
-4.02659e-06
-1.55239e-05
-3.02652e-06
-2.00399e-05
-1.65433e-05
5.0216e-07
4.53477e-06
7.0033e-07
9.49369e-06
7.43712e-07
1.17482e-05
7.79465e-07
1.25886e-05
8.24452e-07
1.22422e-05
8.5335e-07
1.093e-05
8.46493e-07
9.06154e-06
7.95684e-07
7.01099e-06
7.01782e-07
4.99395e-06
5.6651e-07
3.07412e-06
3.84681e-07
1.2231e-06
1.50106e-07
-6.12708e-07
-1.388e-07
-2.4743e-06
-4.88682e-07
-4.36455e-06
-9.03208e-07
-6.2723e-06
-1.42596e-06
-8.23964e-06
-2.20439e-06
-1.06262e-05
-2.95411e-06
-1.47742e-05
-2.46102e-06
-2.0533e-05
-1.90043e-05
7.59164e-07
3.77561e-06
1.35858e-06
8.89427e-06
1.7528e-06
1.1354e-05
2.08363e-06
1.22578e-05
2.35796e-06
1.19679e-05
2.54565e-06
1.07423e-05
2.63857e-06
8.96862e-06
2.64744e-06
7.00213e-06
2.58626e-06
5.05512e-06
2.46149e-06
3.19889e-06
2.26553e-06
1.41906e-06
1.98432e-06
-3.315e-07
1.61847e-06
-2.10844e-06
1.16303e-06
-3.90911e-06
6.13718e-07
-5.72299e-06
-8.07028e-08
-7.54522e-06
-9.54469e-07
-9.75239e-06
-1.9176e-06
-1.3811e-05
-1.92451e-06
-2.05261e-05
-2.09288e-05
8.74739e-07
2.90087e-06
1.81755e-06
7.95146e-06
2.5621e-06
1.06094e-05
3.20571e-06
1.16141e-05
3.75585e-06
1.14178e-05
4.1693e-06
1.03288e-05
4.43022e-06
8.7077e-06
4.55256e-06
6.87979e-06
4.55919e-06
5.04849e-06
4.46517e-06
3.29291e-06
4.26838e-06
1.61585e-06
3.93623e-06
6.50158e-10
3.48938e-06
-1.66159e-06
2.90223e-06
-3.32196e-06
2.17598e-06
-4.99673e-06
1.32965e-06
-6.69889e-06
2.72781e-07
-8.69553e-06
-9.544e-07
-1.25839e-05
-1.42547e-06
-2.0055e-05
-2.23543e-05
8.10619e-07
2.09025e-06
1.96325e-06
6.79882e-06
3.01014e-06
9.56252e-06
3.98751e-06
1.06368e-05
4.86842e-06
1.05369e-05
5.58686e-06
9.61038e-06
6.1037e-06
8.19086e-06
6.4219e-06
6.56159e-06
6.56223e-06
4.90816e-06
6.54261e-06
3.31253e-06
6.36124e-06
1.79722e-06
6.01547e-06
3.46418e-07
5.47224e-06
-1.11836e-06
4.73901e-06
-2.58873e-06
3.80793e-06
-4.06565e-06
2.70796e-06
-5.59892e-06
1.39951e-06
-7.38707e-06
-1.50057e-07
-1.10343e-05
-9.09877e-07
-1.92952e-05
-2.32641e-05
5.80838e-07
1.50941e-06
1.76857e-06
5.61109e-06
3.11275e-06
8.21835e-06
4.46948e-06
9.28004e-06
5.74129e-06
9.26504e-06
6.82957e-06
8.52211e-06
7.66889e-06
7.35154e-06
8.24657e-06
5.98391e-06
8.57491e-06
4.57982e-06
8.67058e-06
3.21686e-06
8.54025e-06
1.92755e-06
8.18106e-06
7.05609e-07
7.54892e-06
-4.86221e-07
6.66122e-06
-1.70104e-06
5.50533e-06
-2.90975e-06
4.12226e-06
-4.21585e-06
2.58568e-06
-5.85049e-06
9.67041e-07
-9.41566e-06
-1.3985e-07
-1.81883e-05
-2.3404e-05
1.53985e-07
1.35543e-06
1.04735e-06
4.71773e-06
2.53108e-06
6.73461e-06
4.26004e-06
7.55108e-06
5.98892e-06
7.53617e-06
7.52998e-06
6.98105e-06
8.78053e-06
6.10099e-06
9.71076e-06
5.05368e-06
1.03157e-05
3.97485e-06
1.06068e-05
2.92577e-06
1.059e-05
1.9444e-06
1.02707e-05
1.02486e-06
9.60296e-06
1.81546e-07
8.6089e-06
-7.06978e-07
7.27853e-06
-1.57938e-06
5.66393e-06
-2.60124e-06
3.92611e-06
-4.11268e-06
2.24897e-06
-7.73852e-06
6.56272e-07
-1.65956e-05
-2.27477e-05
-5.18869e-07
1.8743e-06
2.03295e-07
3.99556e-06
1.76629e-06
5.17162e-06
3.8385e-06
5.47887e-06
6.00284e-06
5.37183e-06
7.97238e-06
5.01151e-06
9.6105e-06
4.46286e-06
1.08756e-05
3.78853e-06
1.17503e-05
3.10021e-06
1.22506e-05
2.42548e-06
1.238e-05
1.81497e-06
1.21584e-05
1.24652e-06
1.16097e-05
7.30231e-07
1.07045e-05
1.98228e-07
9.44743e-06
-3.22349e-07
7.91205e-06
-1.06587e-06
6.2842e-06
-2.48483e-06
4.46534e-06
-5.91965e-06
2.05915e-06
-1.41894e-05
-2.06886e-05
-4.18125e-06
6.05554e-06
-3.64386e-06
3.45818e-06
-1.24424e-06
2.772e-06
1.56114e-06
2.67349e-06
4.30848e-06
2.62448e-06
6.85085e-06
2.46915e-06
9.07461e-06
2.2391e-06
1.09193e-05
1.9438e-06
1.23665e-05
1.65305e-06
1.34431e-05
1.34893e-06
1.4166e-05
1.09201e-06
1.45801e-05
8.32396e-07
1.46731e-05
6.373e-07
1.44538e-05
4.17456e-07
1.39182e-05
2.13325e-07
1.30819e-05
-2.29572e-07
1.1933e-05
-1.33594e-06
1.01161e-05
-4.10276e-06
5.63934e-06
-9.7127e-06
-1.50492e-05
6.05554e-06
9.51372e-06
1.22857e-05
1.49592e-05
1.75837e-05
2.00528e-05
2.22919e-05
2.42357e-05
2.58888e-05
2.72377e-05
2.83297e-05
2.91621e-05
2.97994e-05
3.02169e-05
3.04302e-05
3.02006e-05
2.88647e-05
2.47619e-05
1.50492e-05
)
;

boundaryField
{
    movingWall
    {
        type            calculated;
        value           uniform 0;
    }
    fixedWalls
    {
        type            calculated;
        value           uniform 0;
    }
    frontAndBack
    {
        type            empty;
        value           nonuniform List<scalar> 0();
    }
}


// ************************************************************************* //
