/*--------------------------------*- C++ -*----------------------------------*\
| =========                 |                                                 |
| \\      /  F ield         | OpenFOAM: The Open Source CFD Toolbox           |
|  \\    /   O peration     | Version:  2212                                  |
|   \\  /    A nd           | Website:  www.openfoam.com                      |
|    \\/     M anipulation  |                                                 |
\*---------------------------------------------------------------------------*/
FoamFile
{
    version     2.0;
    format      ascii;
    arch        "LSB;label=32;scalar=64";
    class       volScalarField;
    location    "7.1";
    object      T;
}
// * * * * * * * * * * * * * * * * * * * * * * * * * * * * * * * * * * * * * //

dimensions      [0 0 0 1 0 0 0];

internalField   nonuniform List<scalar> 
400
(
0.779506
0.785906
0.798767
0.817552
0.838978
0.857838
0.870589
0.877325
0.880523
0.882519
0.884237
0.885908
0.887593
0.889194
0.890384
0.890602
0.888924
0.88423
0.876902
0.870867
0.788025
0.79568
0.810948
0.83252
0.854739
0.870379
0.877557
0.880032
0.881068
0.881836
0.882956
0.884776
0.887394
0.89061
0.893656
0.895325
0.893785
0.887577
0.878544
0.871866
0.801175
0.811202
0.829782
0.851906
0.868979
0.876343
0.877163
0.87569
0.873532
0.871879
0.871775
0.87394
0.878404
0.884991
0.892396
0.898631
0.900352
0.894118
0.881569
0.873689
0.813984
0.82647
0.846577
0.864736
0.873337
0.872619
0.867444
0.860533
0.853489
0.848266
0.846263
0.848705
0.855315
0.866251
0.879983
0.894197
0.904489
0.904768
0.890311
0.878392
0.823951
0.837999
0.857014
0.868611
0.868476
0.860132
0.848047
0.834451
0.821916
0.81277
0.808629
0.810888
0.819201
0.83394
0.853847
0.8768
0.898563
0.912125
0.906739
0.887564
0.830824
0.845172
0.861171
0.865453
0.857126
0.841356
0.82211
0.802158
0.784816
0.7724
0.766503
0.768167
0.777375
0.794381
0.818487
0.848063
0.879715
0.907331
0.919826
0.901277
0.83514
0.848663
0.860678
0.858022
0.842514
0.820058
0.794573
0.769671
0.748968
0.734566
0.727731
0.728921
0.738318
0.756072
0.782057
0.815431
0.853662
0.891543
0.919982
0.920714
0.837587
0.849661
0.857762
0.849321
0.827893
0.799857
0.769528
0.741239
0.718573
0.703296
0.69617
0.697173
0.706339
0.723742
0.749654
0.784275
0.826463
0.871724
0.911163
0.931303
0.838738
0.849134
0.853876
0.841039
0.815159
0.783027
0.749424
0.719079
0.695397
0.679803
0.672616
0.673555
0.682439
0.699132
0.723857
0.757541
0.801062
0.851755
0.899593
0.927649
0.839009
0.847869
0.850308
0.834867
0.806214
0.771428
0.735751
0.704139
0.67982
0.663939
0.656537
0.657281
0.665905
0.682061
0.705544
0.737216
0.779646
0.833404
0.889341
0.925015
0.838658
0.846274
0.847419
0.83092
0.801037
0.765068
0.72857
0.696458
0.671758
0.655467
0.647561
0.647792
0.655945
0.671586
0.694054
0.723526
0.763277
0.817533
0.879701
0.9233
0.837843
0.84459
0.845533
0.829763
0.800463
0.76482
0.728562
0.696473
0.671477
0.654616
0.645968
0.645377
0.652687
0.667477
0.688834
0.716098
0.752253
0.805061
0.872073
0.922397
0.836576
0.842809
0.844287
0.830539
0.803343
0.76945
0.734615
0.703417
0.678685
0.661554
0.652235
0.650645
0.65671
0.670039
0.689695
0.714528
0.746485
0.795875
0.865978
0.922315
0.834777
0.840854
0.8435
0.833098
0.809775
0.779315
0.747248
0.717898
0.694016
0.676891
0.666939
0.664087
0.668421
0.679536
0.696607
0.71829
0.745672
0.790516
0.862061
0.922926
0.832308
0.838538
0.842306
0.835464
0.816926
0.791236
0.763387
0.737306
0.715532
0.699362
0.689362
0.685448
0.687782
0.696028
0.709523
0.727327
0.749912
0.788822
0.859949
0.924227
0.829306
0.835854
0.840987
0.838058
0.825285
0.805725
0.783469
0.761878
0.74322
0.728728
0.719019
0.714146
0.714133
0.718875
0.727964
0.740929
0.758381
0.790273
0.859827
0.926275
0.826427
0.832772
0.838029
0.837642
0.829956
0.816829
0.801115
0.785338
0.771213
0.759763
0.751419
0.7464
0.744544
0.746002
0.750765
0.758727
0.771635
0.797526
0.863841
0.929738
0.824366
0.831057
0.837238
0.838819
0.835492
0.828295
0.818888
0.808826
0.799239
0.790935
0.784233
0.779446
0.776577
0.775772
0.777547
0.781651
0.791386
0.811594
0.871509
0.934122
0.80015
0.827524
0.829392
0.830555
0.828997
0.826074
0.822304
0.818656
0.81522
0.81272
0.810932
0.810255
0.810571
0.811788
0.814731
0.818388
0.827632
0.843651
0.889589
0.941628
0.859263
0.876603
0.886139
0.892134
0.895654
0.898062
0.899578
0.90103
0.902144
0.903563
0.904807
0.906469
0.90798
0.909927
0.911748
0.914213
0.917203
0.923401
0.935462
0.957087
)
;

boundaryField
{
    movingWall
    {
        type            fixedValue;
        value           uniform 1;
    }
    fixedWalls
    {
        type            zeroGradient;
    }
    frontAndBack
    {
        type            empty;
    }
}


// ************************************************************************* //
