/*--------------------------------*- C++ -*----------------------------------*\
| =========                 |                                                 |
| \\      /  F ield         | OpenFOAM: The Open Source CFD Toolbox           |
|  \\    /   O peration     | Version:  2212                                  |
|   \\  /    A nd           | Website:  www.openfoam.com                      |
|    \\/     M anipulation  |                                                 |
\*---------------------------------------------------------------------------*/
FoamFile
{
    version     2.0;
    format      ascii;
    arch        "LSB;label=32;scalar=64";
    class       volScalarField;
    location    "12.6";
    object      T;
}
// * * * * * * * * * * * * * * * * * * * * * * * * * * * * * * * * * * * * * //

dimensions      [0 0 0 1 0 0 0];

internalField   nonuniform List<scalar> 
400
(
0.937731
0.93909
0.941854
0.94594
0.950695
0.955018
0.9581
0.959878
0.96083
0.961474
0.962057
0.962659
0.963302
0.963963
0.96454
0.964864
0.964657
0.963626
0.961928
0.960538
0.939478
0.941144
0.944482
0.949255
0.954293
0.95799
0.959789
0.960418
0.960637
0.960803
0.961131
0.961751
0.962706
0.96394
0.965204
0.966114
0.966082
0.964665
0.962445
0.960845
0.942207
0.944442
0.948585
0.95357
0.957484
0.959144
0.959106
0.958355
0.957411
0.956696
0.956578
0.957314
0.958914
0.961328
0.964117
0.96664
0.967821
0.966588
0.963395
0.961414
0.944881
0.947701
0.952215
0.956258
0.957998
0.95729
0.955197
0.952527
0.949885
0.947932
0.947169
0.948021
0.95038
0.954299
0.959242
0.964435
0.968451
0.969403
0.965857
0.962754
0.946939
0.950097
0.954266
0.956547
0.955749
0.952516
0.947989
0.942997
0.938431
0.935101
0.933597
0.934412
0.937415
0.942714
0.949832
0.958001
0.965783
0.970951
0.970292
0.965249
0.948299
0.951446
0.954694
0.954841
0.951437
0.945608
0.938543
0.931284
0.924956
0.920415
0.918259
0.918881
0.92227
0.928486
0.937221
0.947821
0.959034
0.968778
0.973603
0.968904
0.949062
0.951885
0.953885
0.951879
0.946056
0.937829
0.928504
0.919394
0.911754
0.906414
0.903869
0.904319
0.907829
0.914424
0.923991
0.936132
0.949839
0.963199
0.973138
0.974144
0.949395
0.951739
0.952491
0.948606
0.940709
0.930439
0.919306
0.908863
0.900401
0.89466
0.891965
0.892348
0.895819
0.902375
0.912047
0.924803
0.940103
0.956231
0.970013
0.976952
0.949436
0.951264
0.950922
0.945543
0.936044
0.924249
0.911856
0.900558
0.891629
0.885702
0.882948
0.883303
0.886699
0.893061
0.902411
0.914985
0.930939
0.949149
0.966002
0.975701
0.949291
0.950691
0.949604
0.943295
0.932765
0.919963
0.906745
0.894898
0.885664
0.879577
0.876715
0.876989
0.880303
0.886501
0.895462
0.907417
0.923141
0.9426
0.962376
0.974756
0.949025
0.950123
0.948621
0.941875
0.930853
0.917591
0.904029
0.89195
0.882535
0.876263
0.873193
0.873268
0.87641
0.882431
0.891048
0.902264
0.91714
0.936929
0.959005
0.974153
0.948673
0.949625
0.948106
0.941531
0.930654
0.917489
0.903997
0.891912
0.882378
0.875883
0.872524
0.872281
0.875098
0.880796
0.889
0.899424
0.913065
0.932448
0.956307
0.973824
0.948228
0.949167
0.947895
0.941927
0.931725
0.919186
0.906229
0.894498
0.885089
0.878507
0.874899
0.874271
0.876604
0.881733
0.889279
0.898791
0.910929
0.929167
0.954177
0.973788
0.947661
0.948718
0.947967
0.943089
0.934171
0.922854
0.910931
0.899929
0.890886
0.884344
0.880516
0.879409
0.881068
0.885333
0.891873
0.900177
0.910623
0.927261
0.952802
0.97399
0.946917
0.948165
0.947924
0.944232
0.936916
0.927287
0.916931
0.90719
0.898998
0.892868
0.889055
0.887554
0.888442
0.891595
0.896754
0.90357
0.912212
0.926707
0.952086
0.974436
0.946034
0.947526
0.947948
0.945636
0.940264
0.932766
0.924427
0.916366
0.90938
0.903931
0.900266
0.898425
0.898428
0.900246
0.903723
0.908696
0.915382
0.927295
0.952063
0.97514
0.945156
0.946622
0.947249
0.945928
0.942345
0.937105
0.931106
0.92517
0.919876
0.915587
0.91246
0.910587
0.909908
0.910496
0.912339
0.915414
0.920342
0.929991
0.953509
0.976336
0.944535
0.946288
0.947418
0.946932
0.944939
0.941798
0.938032
0.934144
0.9305
0.927374
0.924866
0.923093
0.92204
0.921777
0.922472
0.924055
0.927682
0.935106
0.956218
0.977844
0.936235
0.944488
0.944516
0.944278
0.94321
0.941766
0.940105
0.938557
0.937133
0.936083
0.935315
0.934969
0.934995
0.935364
0.936357
0.937625
0.940873
0.946527
0.96255
0.980429
0.955204
0.960628
0.963538
0.965289
0.966233
0.966829
0.967147
0.967469
0.967698
0.968049
0.96836
0.968824
0.969255
0.969838
0.9704
0.971177
0.972167
0.974251
0.978401
0.985719
)
;

boundaryField
{
    movingWall
    {
        type            fixedValue;
        value           uniform 1;
    }
    fixedWalls
    {
        type            zeroGradient;
    }
    frontAndBack
    {
        type            empty;
    }
}


// ************************************************************************* //
